 VARIABLES = "x" "y"
 Zone I=          41 , J=         151 , F=POINT
    0.00000000   -0.20000000
    0.00000000   -0.19000000
    0.00000000   -0.18000000
    0.00000000   -0.17000000
    0.00000000   -0.16000000
    0.00000000   -0.15000000
    0.00000000   -0.14000000
    0.00000000   -0.13000000
    0.00000000   -0.12000000
    0.00000000   -0.11000000
    0.00000000   -0.10000000
    0.00000000   -0.09000000
    0.00000000   -0.08000000
    0.00000000   -0.07000000
    0.00000000   -0.06000000
    0.00000000   -0.05000000
    0.00000000   -0.04000000
    0.00000000   -0.03000000
    0.00000000   -0.02000000
    0.00000000   -0.01000000
    0.00000000    0.00000000
    0.00000000    0.01000000
    0.00000000    0.02000000
    0.00000000    0.03000000
    0.00000000    0.04000000
    0.00000000    0.05000000
    0.00000000    0.06000000
    0.00000000    0.07000000
    0.00000000    0.08000000
    0.00000000    0.09000000
    0.00000000    0.10000000
    0.00000000    0.11000000
    0.00000000    0.12000000
    0.00000000    0.13000000
    0.00000000    0.14000000
    0.00000000    0.15000000
    0.00000000    0.16000000
    0.00000000    0.17000000
    0.00000000    0.18000000
    0.00000000    0.19000000
    0.00000000    0.20000000
    0.01058353   -0.19983241
    0.01058353   -0.18984079
    0.01058353   -0.17984917
    0.01058353   -0.16985755
    0.01058353   -0.15986593
    0.01058353   -0.14987431
    0.01058353   -0.13988269
    0.01058353   -0.12989107
    0.01058353   -0.11989945
    0.01058353   -0.10990783
    0.01058353   -0.09991621
    0.01058353   -0.08992459
    0.01058353   -0.07993297
    0.01058353   -0.06994134
    0.01058353   -0.05994972
    0.01058353   -0.04995810
    0.01058353   -0.03996648
    0.01058353   -0.02997486
    0.01058353   -0.01998324
    0.01058353   -0.00999162
    0.01058353    0.00000000
    0.01058353    0.00999162
    0.01058353    0.01998324
    0.01058353    0.02997486
    0.01058353    0.03996648
    0.01058353    0.04995810
    0.01058353    0.05994972
    0.01058353    0.06994134
    0.01058353    0.07993297
    0.01058353    0.08992459
    0.01058353    0.09991621
    0.01058353    0.10990783
    0.01058353    0.11989945
    0.01058353    0.12989107
    0.01058353    0.13988269
    0.01058353    0.14987431
    0.01058353    0.15986593
    0.01058353    0.16985755
    0.01058353    0.17984917
    0.01058353    0.18984079
    0.01058353    0.19983241
    0.02115380   -0.19954467
    0.02115380   -0.18956743
    0.02115380   -0.17959020
    0.02115380   -0.16961297
    0.02115380   -0.15963573
    0.02115380   -0.14965850
    0.02115380   -0.13968127
    0.02115380   -0.12970403
    0.02115380   -0.11972680
    0.02115380   -0.10974957
    0.02115380   -0.09977233
    0.02115380   -0.08979510
    0.02115380   -0.07981787
    0.02115380   -0.06984063
    0.02115380   -0.05986340
    0.02115380   -0.04988617
    0.02115380   -0.03990893
    0.02115380   -0.02993170
    0.02115380   -0.01995447
    0.02115380   -0.00997723
    0.02115380    0.00000000
    0.02115380    0.00997723
    0.02115380    0.01995447
    0.02115380    0.02993170
    0.02115380    0.03990893
    0.02115380    0.04988617
    0.02115380    0.05986340
    0.02115380    0.06984063
    0.02115380    0.07981787
    0.02115380    0.08979510
    0.02115380    0.09977233
    0.02115380    0.10974957
    0.02115380    0.11972680
    0.02115380    0.12970403
    0.02115380    0.13968127
    0.02115380    0.14965850
    0.02115380    0.15963573
    0.02115380    0.16961297
    0.02115380    0.17959020
    0.02115380    0.18956743
    0.02115380    0.19954467
    0.03169862   -0.19902660
    0.03169862   -0.18907527
    0.03169862   -0.17912394
    0.03169862   -0.16917261
    0.03169862   -0.15922128
    0.03169862   -0.14926995
    0.03169862   -0.13931862
    0.03169862   -0.12936729
    0.03169862   -0.11941596
    0.03169862   -0.10946463
    0.03169862   -0.09951330
    0.03169862   -0.08956197
    0.03169862   -0.07961064
    0.03169862   -0.06965931
    0.03169862   -0.05970798
    0.03169862   -0.04975665
    0.03169862   -0.03980532
    0.03169862   -0.02985399
    0.03169862   -0.01990266
    0.03169862   -0.00995133
    0.03169862    0.00000000
    0.03169862    0.00995133
    0.03169862    0.01990266
    0.03169862    0.02985399
    0.03169862    0.03980532
    0.03169862    0.04975665
    0.03169862    0.05970798
    0.03169862    0.06965931
    0.03169862    0.07961064
    0.03169862    0.08956197
    0.03169862    0.09951330
    0.03169862    0.10946463
    0.03169862    0.11941596
    0.03169862    0.12936729
    0.03169862    0.13931862
    0.03169862    0.14926995
    0.03169862    0.15922128
    0.03169862    0.16917261
    0.03169862    0.17912394
    0.03169862    0.18907527
    0.03169862    0.19902660
    0.04220486   -0.19826080
    0.04220486   -0.18834776
    0.04220486   -0.17843472
    0.04220486   -0.16852168
    0.04220486   -0.15860864
    0.04220486   -0.14869560
    0.04220486   -0.13878256
    0.04220486   -0.12886952
    0.04220486   -0.11895648
    0.04220486   -0.10904344
    0.04220486   -0.09913040
    0.04220486   -0.08921736
    0.04220486   -0.07930432
    0.04220486   -0.06939128
    0.04220486   -0.05947824
    0.04220486   -0.04956520
    0.04220486   -0.03965216
    0.04220486   -0.02973912
    0.04220486   -0.01982608
    0.04220486   -0.00991304
    0.04220486    0.00000000
    0.04220486    0.00991304
    0.04220486    0.01982608
    0.04220486    0.02973912
    0.04220486    0.03965216
    0.04220486    0.04956520
    0.04220486    0.05947824
    0.04220486    0.06939128
    0.04220486    0.07930432
    0.04220486    0.08921736
    0.04220486    0.09913040
    0.04220486    0.10904344
    0.04220486    0.11895648
    0.04220486    0.12886952
    0.04220486    0.13878256
    0.04220486    0.14869560
    0.04220486    0.15860864
    0.04220486    0.16852168
    0.04220486    0.17843472
    0.04220486    0.18834776
    0.04220486    0.19826080
    0.05266335   -0.19728441
    0.05266335   -0.18742019
    0.05266335   -0.17755597
    0.05266335   -0.16769175
    0.05266335   -0.15782753
    0.05266335   -0.14796331
    0.05266335   -0.13809909
    0.05266335   -0.12823487
    0.05266335   -0.11837065
    0.05266335   -0.10850643
    0.05266335   -0.09864221
    0.05266335   -0.08877798
    0.05266335   -0.07891376
    0.05266335   -0.06904954
    0.05266335   -0.05918532
    0.05266335   -0.04932110
    0.05266335   -0.03945688
    0.05266335   -0.02959266
    0.05266335   -0.01972844
    0.05266335   -0.00986422
    0.05266335    0.00000000
    0.05266335    0.00986422
    0.05266335    0.01972844
    0.05266335    0.02959266
    0.05266335    0.03945688
    0.05266335    0.04932110
    0.05266335    0.05918532
    0.05266335    0.06904954
    0.05266335    0.07891376
    0.05266335    0.08877798
    0.05266335    0.09864221
    0.05266335    0.10850643
    0.05266335    0.11837065
    0.05266335    0.12823487
    0.05266335    0.13809909
    0.05266335    0.14796331
    0.05266335    0.15782753
    0.05266335    0.16769175
    0.05266335    0.17755597
    0.05266335    0.18742019
    0.05266335    0.19728441
    0.06305821   -0.19612213
    0.06305821   -0.18631602
    0.06305821   -0.17650992
    0.06305821   -0.16670381
    0.06305821   -0.15689770
    0.06305821   -0.14709160
    0.06305821   -0.13728549
    0.06305821   -0.12747938
    0.06305821   -0.11767328
    0.06305821   -0.10786717
    0.06305821   -0.09806107
    0.06305821   -0.08825496
    0.06305821   -0.07844885
    0.06305821   -0.06864275
    0.06305821   -0.05883664
    0.06305821   -0.04903053
    0.06305821   -0.03922443
    0.06305821   -0.02941832
    0.06305821   -0.01961221
    0.06305821   -0.00980611
    0.06305821    0.00000000
    0.06305821    0.00980611
    0.06305821    0.01961221
    0.06305821    0.02941832
    0.06305821    0.03922443
    0.06305821    0.04903053
    0.06305821    0.05883664
    0.06305821    0.06864275
    0.06305821    0.07844885
    0.06305821    0.08825496
    0.06305821    0.09806107
    0.06305821    0.10786717
    0.06305821    0.11767328
    0.06305821    0.12747938
    0.06305821    0.13728549
    0.06305821    0.14709160
    0.06305821    0.15689770
    0.06305821    0.16670381
    0.06305821    0.17650992
    0.06305821    0.18631602
    0.06305821    0.19612213
    0.07338941   -0.19477786
    0.07338941   -0.18503897
    0.07338941   -0.17530008
    0.07338941   -0.16556118
    0.07338941   -0.15582229
    0.07338941   -0.14608340
    0.07338941   -0.13634450
    0.07338941   -0.12660561
    0.07338941   -0.11686672
    0.07338941   -0.10712783
    0.07338941   -0.09738893
    0.07338941   -0.08765004
    0.07338941   -0.07791115
    0.07338941   -0.06817225
    0.07338941   -0.05843336
    0.07338941   -0.04869447
    0.07338941   -0.03895557
    0.07338941   -0.02921668
    0.07338941   -0.01947779
    0.07338941   -0.00973889
    0.07338941    0.00000000
    0.07338941    0.00973889
    0.07338941    0.01947779
    0.07338941    0.02921668
    0.07338941    0.03895557
    0.07338941    0.04869447
    0.07338941    0.05843336
    0.07338941    0.06817225
    0.07338941    0.07791115
    0.07338941    0.08765004
    0.07338941    0.09738893
    0.07338941    0.10712783
    0.07338941    0.11686672
    0.07338941    0.12660561
    0.07338941    0.13634450
    0.07338941    0.14608340
    0.07338941    0.15582229
    0.07338941    0.16556118
    0.07338941    0.17530008
    0.07338941    0.18503897
    0.07338941    0.19477786
    0.08363358   -0.19325824
    0.08363358   -0.18359532
    0.08363358   -0.17393241
    0.08363358   -0.16426950
    0.08363358   -0.15460659
    0.08363358   -0.14494368
    0.08363358   -0.13528076
    0.08363358   -0.12561785
    0.08363358   -0.11595494
    0.08363358   -0.10629203
    0.08363358   -0.09662912
    0.08363358   -0.08696621
    0.08363358   -0.07730329
    0.08363358   -0.06764038
    0.08363358   -0.05797747
    0.08363358   -0.04831456
    0.08363358   -0.03865165
    0.08363358   -0.02898874
    0.08363358   -0.01932582
    0.08363358   -0.00966291
    0.08363358    0.00000000
    0.08363358    0.00966291
    0.08363358    0.01932582
    0.08363358    0.02898874
    0.08363358    0.03865165
    0.08363358    0.04831456
    0.08363358    0.05797747
    0.08363358    0.06764038
    0.08363358    0.07730329
    0.08363358    0.08696621
    0.08363358    0.09662912
    0.08363358    0.10629203
    0.08363358    0.11595494
    0.08363358    0.12561785
    0.08363358    0.13528076
    0.08363358    0.14494368
    0.08363358    0.15460659
    0.08363358    0.16426950
    0.08363358    0.17393241
    0.08363358    0.18359532
    0.08363358    0.19325824
    0.09379734   -0.19156809
    0.09379734   -0.18198969
    0.09379734   -0.17241128
    0.09379734   -0.16283288
    0.09379734   -0.15325448
    0.09379734   -0.14367607
    0.09379734   -0.13409767
    0.09379734   -0.12451926
    0.09379734   -0.11494086
    0.09379734   -0.10536245
    0.09379734   -0.09578405
    0.09379734   -0.08620564
    0.09379734   -0.07662724
    0.09379734   -0.06704883
    0.09379734   -0.05747043
    0.09379734   -0.04789202
    0.09379734   -0.03831362
    0.09379734   -0.02873521
    0.09379734   -0.01915681
    0.09379734   -0.00957840
    0.09379734    0.00000000
    0.09379734    0.00957840
    0.09379734    0.01915681
    0.09379734    0.02873521
    0.09379734    0.03831362
    0.09379734    0.04789202
    0.09379734    0.05747043
    0.09379734    0.06704883
    0.09379734    0.07662724
    0.09379734    0.08620564
    0.09379734    0.09578405
    0.09379734    0.10536245
    0.09379734    0.11494086
    0.09379734    0.12451926
    0.09379734    0.13409767
    0.09379734    0.14367607
    0.09379734    0.15325448
    0.09379734    0.16283288
    0.09379734    0.17241128
    0.09379734    0.18198969
    0.09379734    0.19156809
    0.10385676   -0.18971931
    0.10385676   -0.18023334
    0.10385676   -0.17074738
    0.10385676   -0.16126141
    0.10385676   -0.15177545
    0.10385676   -0.14228948
    0.10385676   -0.13280351
    0.10385676   -0.12331755
    0.10385676   -0.11383158
    0.10385676   -0.10434562
    0.10385676   -0.09485965
    0.10385676   -0.08537369
    0.10385676   -0.07588772
    0.10385676   -0.06640176
    0.10385676   -0.05691579
    0.10385676   -0.04742983
    0.10385676   -0.03794386
    0.10385676   -0.02845790
    0.10385676   -0.01897193
    0.10385676   -0.00948597
    0.10385676    0.00000000
    0.10385676    0.00948597
    0.10385676    0.01897193
    0.10385676    0.02845790
    0.10385676    0.03794386
    0.10385676    0.04742983
    0.10385676    0.05691579
    0.10385676    0.06640176
    0.10385676    0.07588772
    0.10385676    0.08537369
    0.10385676    0.09485965
    0.10385676    0.10434562
    0.10385676    0.11383158
    0.10385676    0.12331755
    0.10385676    0.13280351
    0.10385676    0.14228948
    0.10385676    0.15177545
    0.10385676    0.16126141
    0.10385676    0.17074738
    0.10385676    0.18023334
    0.10385676    0.18971931
    0.11382005   -0.18773550
    0.11382005   -0.17834872
    0.11382005   -0.16896195
    0.11382005   -0.15957517
    0.11382005   -0.15018840
    0.11382005   -0.14080162
    0.11382005   -0.13141485
    0.11382005   -0.12202807
    0.11382005   -0.11264130
    0.11382005   -0.10325452
    0.11382005   -0.09386775
    0.11382005   -0.08448097
    0.11382005   -0.07509420
    0.11382005   -0.06570742
    0.11382005   -0.05632065
    0.11382005   -0.04693387
    0.11382005   -0.03754710
    0.11382005   -0.02816032
    0.11382005   -0.01877355
    0.11382005   -0.00938677
    0.11382005    0.00000000
    0.11382005    0.00938677
    0.11382005    0.01877355
    0.11382005    0.02816032
    0.11382005    0.03754710
    0.11382005    0.04693387
    0.11382005    0.05632065
    0.11382005    0.06570742
    0.11382005    0.07509420
    0.11382005    0.08448097
    0.11382005    0.09386775
    0.11382005    0.10325452
    0.11382005    0.11264130
    0.11382005    0.12202807
    0.11382005    0.13141485
    0.11382005    0.14080162
    0.11382005    0.15018840
    0.11382005    0.15957517
    0.11382005    0.16896195
    0.11382005    0.17834872
    0.11382005    0.18773550
    0.12366481   -0.18565717
    0.12366481   -0.17637432
    0.12366481   -0.16709146
    0.12366481   -0.15780860
    0.12366481   -0.14852574
    0.12366481   -0.13924288
    0.12366481   -0.12996002
    0.12366481   -0.12067716
    0.12366481   -0.11139430
    0.12366481   -0.10211145
    0.12366481   -0.09282859
    0.12366481   -0.08354573
    0.12366481   -0.07426287
    0.12366481   -0.06498001
    0.12366481   -0.05569715
    0.12366481   -0.04641429
    0.12366481   -0.03713143
    0.12366481   -0.02784858
    0.12366481   -0.01856572
    0.12366481   -0.00928286
    0.12366481    0.00000000
    0.12366481    0.00928286
    0.12366481    0.01856572
    0.12366481    0.02784858
    0.12366481    0.03713143
    0.12366481    0.04641429
    0.12366481    0.05569715
    0.12366481    0.06498001
    0.12366481    0.07426287
    0.12366481    0.08354573
    0.12366481    0.09282859
    0.12366481    0.10211145
    0.12366481    0.11139430
    0.12366481    0.12067716
    0.12366481    0.12996002
    0.12366481    0.13924288
    0.12366481    0.14852574
    0.12366481    0.15780860
    0.12366481    0.16709146
    0.12366481    0.17637432
    0.12366481    0.18565717
    0.13340615   -0.18348668
    0.13340615   -0.17431235
    0.13340615   -0.16513802
    0.13340615   -0.15596368
    0.13340615   -0.14678935
    0.13340615   -0.13761501
    0.13340615   -0.12844068
    0.13340615   -0.11926634
    0.13340615   -0.11009201
    0.13340615   -0.10091768
    0.13340615   -0.09174334
    0.13340615   -0.08256901
    0.13340615   -0.07339467
    0.13340615   -0.06422034
    0.13340615   -0.05504601
    0.13340615   -0.04587167
    0.13340615   -0.03669734
    0.13340615   -0.02752300
    0.13340615   -0.01834867
    0.13340615   -0.00917433
    0.13340615    0.00000000
    0.13340615    0.00917433
    0.13340615    0.01834867
    0.13340615    0.02752300
    0.13340615    0.03669734
    0.13340615    0.04587167
    0.13340615    0.05504601
    0.13340615    0.06422034
    0.13340615    0.07339467
    0.13340615    0.08256901
    0.13340615    0.09174334
    0.13340615    0.10091768
    0.13340615    0.11009201
    0.13340615    0.11926634
    0.13340615    0.12844068
    0.13340615    0.13761501
    0.13340615    0.14678935
    0.13340615    0.15596368
    0.13340615    0.16513802
    0.13340615    0.17431235
    0.13340615    0.18348668
    0.14301160   -0.18116936
    0.14301160   -0.17211089
    0.14301160   -0.16305243
    0.14301160   -0.15399396
    0.14301160   -0.14493549
    0.14301160   -0.13587702
    0.14301160   -0.12681855
    0.14301160   -0.11776009
    0.14301160   -0.10870162
    0.14301160   -0.09964315
    0.14301160   -0.09058468
    0.14301160   -0.08152621
    0.14301160   -0.07246775
    0.14301160   -0.06340928
    0.14301160   -0.05435081
    0.14301160   -0.04529234
    0.14301160   -0.03623387
    0.14301160   -0.02717540
    0.14301160   -0.01811694
    0.14301160   -0.00905847
    0.14301160    0.00000000
    0.14301160    0.00905847
    0.14301160    0.01811694
    0.14301160    0.02717540
    0.14301160    0.03623387
    0.14301160    0.04529234
    0.14301160    0.05435081
    0.14301160    0.06340928
    0.14301160    0.07246775
    0.14301160    0.08152621
    0.14301160    0.09058468
    0.14301160    0.09964315
    0.14301160    0.10870162
    0.14301160    0.11776009
    0.14301160    0.12681855
    0.14301160    0.13587702
    0.14301160    0.14493549
    0.14301160    0.15399396
    0.14301160    0.16305243
    0.14301160    0.17211089
    0.14301160    0.18116936
    0.15249675   -0.17865247
    0.15249675   -0.16971984
    0.15249675   -0.16078722
    0.15249675   -0.15185460
    0.15249675   -0.14292197
    0.15249675   -0.13398935
    0.15249675   -0.12505673
    0.15249675   -0.11612410
    0.15249675   -0.10719148
    0.15249675   -0.09825886
    0.15249675   -0.08932623
    0.15249675   -0.08039361
    0.15249675   -0.07146099
    0.15249675   -0.06252836
    0.15249675   -0.05359574
    0.15249675   -0.04466312
    0.15249675   -0.03573049
    0.15249675   -0.02679787
    0.15249675   -0.01786525
    0.15249675   -0.00893262
    0.15249675    0.00000000
    0.15249675    0.00893262
    0.15249675    0.01786525
    0.15249675    0.02679787
    0.15249675    0.03573049
    0.15249675    0.04466312
    0.15249675    0.05359574
    0.15249675    0.06252836
    0.15249675    0.07146099
    0.15249675    0.08039361
    0.15249675    0.08932623
    0.15249675    0.09825886
    0.15249675    0.10719148
    0.15249675    0.11612410
    0.15249675    0.12505673
    0.15249675    0.13398935
    0.15249675    0.14292197
    0.15249675    0.15185460
    0.15249675    0.16078722
    0.15249675    0.16971984
    0.15249675    0.17865247
    0.16183899   -0.17610568
    0.16183899   -0.16730040
    0.16183899   -0.15849511
    0.16183899   -0.14968983
    0.16183899   -0.14088454
    0.16183899   -0.13207926
    0.16183899   -0.12327398
    0.16183899   -0.11446869
    0.16183899   -0.10566341
    0.16183899   -0.09685812
    0.16183899   -0.08805284
    0.16183899   -0.07924756
    0.16183899   -0.07044227
    0.16183899   -0.06163699
    0.16183899   -0.05283170
    0.16183899   -0.04402642
    0.16183899   -0.03522114
    0.16183899   -0.02641585
    0.16183899   -0.01761057
    0.16183899   -0.00880528
    0.16183899    0.00000000
    0.16183899    0.00880528
    0.16183899    0.01761057
    0.16183899    0.02641585
    0.16183899    0.03522114
    0.16183899    0.04402642
    0.16183899    0.05283170
    0.16183899    0.06163699
    0.16183899    0.07044227
    0.16183899    0.07924756
    0.16183899    0.08805284
    0.16183899    0.09685812
    0.16183899    0.10566341
    0.16183899    0.11446869
    0.16183899    0.12327398
    0.16183899    0.13207926
    0.16183899    0.14088454
    0.16183899    0.14968983
    0.16183899    0.15849511
    0.16183899    0.16730040
    0.16183899    0.17610568
    0.17105951   -0.17381134
    0.17105951   -0.16512077
    0.17105951   -0.15643020
    0.17105951   -0.14773964
    0.17105951   -0.13904907
    0.17105951   -0.13035850
    0.17105951   -0.12166794
    0.17105951   -0.11297737
    0.17105951   -0.10428680
    0.17105951   -0.09559623
    0.17105951   -0.08690567
    0.17105951   -0.07821510
    0.17105951   -0.06952453
    0.17105951   -0.06083397
    0.17105951   -0.05214340
    0.17105951   -0.04345283
    0.17105951   -0.03476227
    0.17105951   -0.02607170
    0.17105951   -0.01738113
    0.17105951   -0.00869057
    0.17105951    0.00000000
    0.17105951    0.00869057
    0.17105951    0.01738113
    0.17105951    0.02607170
    0.17105951    0.03476227
    0.17105951    0.04345283
    0.17105951    0.05214340
    0.17105951    0.06083397
    0.17105951    0.06952453
    0.17105951    0.07821510
    0.17105951    0.08690567
    0.17105951    0.09559623
    0.17105951    0.10428680
    0.17105951    0.11297737
    0.17105951    0.12166794
    0.17105951    0.13035850
    0.17105951    0.13904907
    0.17105951    0.14773964
    0.17105951    0.15643020
    0.17105951    0.16512077
    0.17105951    0.17381134
    0.18017706   -0.17180228
    0.18017706   -0.16321217
    0.18017706   -0.15462206
    0.18017706   -0.14603194
    0.18017706   -0.13744183
    0.18017706   -0.12885171
    0.18017706   -0.12026160
    0.18017706   -0.11167148
    0.18017706   -0.10308137
    0.18017706   -0.09449126
    0.18017706   -0.08590114
    0.18017706   -0.07731103
    0.18017706   -0.06872091
    0.18017706   -0.06013080
    0.18017706   -0.05154069
    0.18017706   -0.04295057
    0.18017706   -0.03436046
    0.18017706   -0.02577034
    0.18017706   -0.01718023
    0.18017706   -0.00859011
    0.18017706    0.00000000
    0.18017706    0.00859011
    0.18017706    0.01718023
    0.18017706    0.02577034
    0.18017706    0.03436046
    0.18017706    0.04295057
    0.18017706    0.05154069
    0.18017706    0.06013080
    0.18017706    0.06872091
    0.18017706    0.07731103
    0.18017706    0.08590114
    0.18017706    0.09449126
    0.18017706    0.10308137
    0.18017706    0.11167148
    0.18017706    0.12026160
    0.18017706    0.12885171
    0.18017706    0.13744183
    0.18017706    0.14603194
    0.18017706    0.15462206
    0.18017706    0.16321217
    0.18017706    0.17180228
    0.18914960   -0.16930811
    0.18914960   -0.16084270
    0.18914960   -0.15237730
    0.18914960   -0.14391189
    0.18914960   -0.13544649
    0.18914960   -0.12698108
    0.18914960   -0.11851568
    0.18914960   -0.11005027
    0.18914960   -0.10158486
    0.18914960   -0.09311946
    0.18914960   -0.08465405
    0.18914960   -0.07618865
    0.18914960   -0.06772324
    0.18914960   -0.05925784
    0.18914960   -0.05079243
    0.18914960   -0.04232703
    0.18914960   -0.03386162
    0.18914960   -0.02539622
    0.18914960   -0.01693081
    0.18914960   -0.00846541
    0.18914960    0.00000000
    0.18914960    0.00846541
    0.18914960    0.01693081
    0.18914960    0.02539622
    0.18914960    0.03386162
    0.18914960    0.04232703
    0.18914960    0.05079243
    0.18914960    0.05925784
    0.18914960    0.06772324
    0.18914960    0.07618865
    0.18914960    0.08465405
    0.18914960    0.09311946
    0.18914960    0.10158486
    0.18914960    0.11005027
    0.18914960    0.11851568
    0.18914960    0.12698108
    0.18914960    0.13544649
    0.18914960    0.14391189
    0.18914960    0.15237730
    0.18914960    0.16084270
    0.18914960    0.16930811
    0.19793764   -0.16548710
    0.19793764   -0.15721274
    0.19793764   -0.14893839
    0.19793764   -0.14066403
    0.19793764   -0.13238968
    0.19793764   -0.12411532
    0.19793764   -0.11584097
    0.19793764   -0.10756661
    0.19793764   -0.09929226
    0.19793764   -0.09101790
    0.19793764   -0.08274355
    0.19793764   -0.07446919
    0.19793764   -0.06619484
    0.19793764   -0.05792048
    0.19793764   -0.04964613
    0.19793764   -0.04137177
    0.19793764   -0.03309742
    0.19793764   -0.02482306
    0.19793764   -0.01654871
    0.19793764   -0.00827435
    0.19793764    0.00000000
    0.19793764    0.00827435
    0.19793764    0.01654871
    0.19793764    0.02482306
    0.19793764    0.03309742
    0.19793764    0.04137177
    0.19793764    0.04964613
    0.19793764    0.05792048
    0.19793764    0.06619484
    0.19793764    0.07446919
    0.19793764    0.08274355
    0.19793764    0.09101790
    0.19793764    0.09929226
    0.19793764    0.10756661
    0.19793764    0.11584097
    0.19793764    0.12411532
    0.19793764    0.13238968
    0.19793764    0.14066403
    0.19793764    0.14893839
    0.19793764    0.15721274
    0.19793764    0.16548710
    0.20650537   -0.16105545
    0.20650537   -0.15300268
    0.20650537   -0.14494990
    0.20650537   -0.13689713
    0.20650537   -0.12884436
    0.20650537   -0.12079159
    0.20650537   -0.11273881
    0.20650537   -0.10468604
    0.20650537   -0.09663327
    0.20650537   -0.08858050
    0.20650537   -0.08052772
    0.20650537   -0.07247495
    0.20650537   -0.06442218
    0.20650537   -0.05636941
    0.20650537   -0.04831663
    0.20650537   -0.04026386
    0.20650537   -0.03221109
    0.20650537   -0.02415832
    0.20650537   -0.01610554
    0.20650537   -0.00805277
    0.20650537    0.00000000
    0.20650537    0.00805277
    0.20650537    0.01610554
    0.20650537    0.02415832
    0.20650537    0.03221109
    0.20650537    0.04026386
    0.20650537    0.04831663
    0.20650537    0.05636941
    0.20650537    0.06442218
    0.20650537    0.07247495
    0.20650537    0.08052772
    0.20650537    0.08858050
    0.20650537    0.09663327
    0.20650537    0.10468604
    0.20650537    0.11273881
    0.20650537    0.12079159
    0.20650537    0.12884436
    0.20650537    0.13689713
    0.20650537    0.14494990
    0.20650537    0.15300268
    0.20650537    0.16105545
    0.21493191   -0.15881298
    0.21493191   -0.15087233
    0.21493191   -0.14293168
    0.21493191   -0.13499103
    0.21493191   -0.12705038
    0.21493191   -0.11910973
    0.21493191   -0.11116909
    0.21493191   -0.10322844
    0.21493191   -0.09528779
    0.21493191   -0.08734714
    0.21493191   -0.07940649
    0.21493191   -0.07146584
    0.21493191   -0.06352519
    0.21493191   -0.05558454
    0.21493191   -0.04764389
    0.21493191   -0.03970324
    0.21493191   -0.03176260
    0.21493191   -0.02382195
    0.21493191   -0.01588130
    0.21493191   -0.00794065
    0.21493191    0.00000000
    0.21493191    0.00794065
    0.21493191    0.01588130
    0.21493191    0.02382195
    0.21493191    0.03176260
    0.21493191    0.03970324
    0.21493191    0.04764389
    0.21493191    0.05558454
    0.21493191    0.06352519
    0.21493191    0.07146584
    0.21493191    0.07940649
    0.21493191    0.08734714
    0.21493191    0.09528779
    0.21493191    0.10322844
    0.21493191    0.11116909
    0.21493191    0.11910973
    0.21493191    0.12705038
    0.21493191    0.13499103
    0.21493191    0.14293168
    0.21493191    0.15087233
    0.21493191    0.15881298
    0.22347633   -0.16153998
    0.22347633   -0.15346299
    0.22347633   -0.14538599
    0.22347633   -0.13730899
    0.22347633   -0.12923199
    0.22347633   -0.12115499
    0.22347633   -0.11307799
    0.22347633   -0.10500099
    0.22347633   -0.09692399
    0.22347633   -0.08884699
    0.22347633   -0.08076999
    0.22347633   -0.07269299
    0.22347633   -0.06461599
    0.22347633   -0.05653899
    0.22347633   -0.04846200
    0.22347633   -0.04038500
    0.22347633   -0.03230800
    0.22347633   -0.02423100
    0.22347633   -0.01615400
    0.22347633   -0.00807700
    0.22347633    0.00000000
    0.22347633    0.00807700
    0.22347633    0.01615400
    0.22347633    0.02423100
    0.22347633    0.03230800
    0.22347633    0.04038500
    0.22347633    0.04846200
    0.22347633    0.05653899
    0.22347633    0.06461599
    0.22347633    0.07269299
    0.22347633    0.08076999
    0.22347633    0.08884699
    0.22347633    0.09692399
    0.22347633    0.10500099
    0.22347633    0.11307799
    0.22347633    0.12115499
    0.22347633    0.12923199
    0.22347633    0.13730899
    0.22347633    0.14538599
    0.22347633    0.15346299
    0.22347633    0.16153998
    0.23232238   -0.16820146
    0.23232238   -0.15979139
    0.23232238   -0.15138132
    0.23232238   -0.14297124
    0.23232238   -0.13456117
    0.23232238   -0.12615110
    0.23232238   -0.11774102
    0.23232238   -0.10933095
    0.23232238   -0.10092088
    0.23232238   -0.09251081
    0.23232238   -0.08410073
    0.23232238   -0.07569066
    0.23232238   -0.06728059
    0.23232238   -0.05887051
    0.23232238   -0.05046044
    0.23232238   -0.04205037
    0.23232238   -0.03364029
    0.23232238   -0.02523022
    0.23232238   -0.01682015
    0.23232238   -0.00841007
    0.23232238    0.00000000
    0.23232238    0.00841007
    0.23232238    0.01682015
    0.23232238    0.02523022
    0.23232238    0.03364029
    0.23232238    0.04205037
    0.23232238    0.05046044
    0.23232238    0.05887051
    0.23232238    0.06728059
    0.23232238    0.07569066
    0.23232238    0.08410073
    0.23232238    0.09251081
    0.23232238    0.10092088
    0.23232238    0.10933095
    0.23232238    0.11774102
    0.23232238    0.12615110
    0.23232238    0.13456117
    0.23232238    0.14297124
    0.23232238    0.15138132
    0.23232238    0.15979139
    0.23232238    0.16820146
    0.24140461   -0.17226404
    0.24140461   -0.16365083
    0.24140461   -0.15503763
    0.24140461   -0.14642443
    0.24140461   -0.13781123
    0.24140461   -0.12919803
    0.24140461   -0.12058483