 VARIABLES = "x" "y"
 Zone I=          41 , J=         101 , F=POINT
    0.00000000   -0.20000000
    0.00000000   -0.19000000
    0.00000000   -0.18000000
    0.00000000   -0.17000000
    0.00000000   -0.16000000
    0.00000000   -0.15000000
    0.00000000   -0.14000000
    0.00000000   -0.13000000
    0.00000000   -0.12000000
    0.00000000   -0.11000000
    0.00000000   -0.10000000
    0.00000000   -0.09000000
    0.00000000   -0.08000000
    0.00000000   -0.07000000
    0.00000000   -0.06000000
    0.00000000   -0.05000000
    0.00000000   -0.04000000
    0.00000000   -0.03000000
    0.00000000   -0.02000000
    0.00000000   -0.01000000
    0.00000000    0.00000000
    0.00000000    0.01000000
    0.00000000    0.02000000
    0.00000000    0.03000000
    0.00000000    0.04000000
    0.00000000    0.05000000
    0.00000000    0.06000000
    0.00000000    0.07000000
    0.00000000    0.08000000
    0.00000000    0.09000000
    0.00000000    0.10000000
    0.00000000    0.11000000
    0.00000000    0.12000000
    0.00000000    0.13000000
    0.00000000    0.14000000
    0.00000000    0.15000000
    0.00000000    0.16000000
    0.00000000    0.17000000
    0.00000000    0.18000000
    0.00000000    0.19000000
    0.00000000    0.20000000
    0.01789925   -0.19965339
    0.01789925   -0.18967072
    0.01789925   -0.17968805
    0.01789925   -0.16970538
    0.01789925   -0.15972271
    0.01789925   -0.14974004
    0.01789925   -0.13975737
    0.01789925   -0.12977470
    0.01789925   -0.11979203
    0.01789925   -0.10980936
    0.01789925   -0.09982669
    0.01789925   -0.08984402
    0.01789925   -0.07986135
    0.01789925   -0.06987869
    0.01789925   -0.05989602
    0.01789925   -0.04991335
    0.01789925   -0.03993068
    0.01789925   -0.02994801
    0.01789925   -0.01996534
    0.01789925   -0.00998267
    0.01789925    0.00000000
    0.01789925    0.00998267
    0.01789925    0.01996534
    0.01789925    0.02994801
    0.01789925    0.03993068
    0.01789925    0.04991335
    0.01789925    0.05989602
    0.01789925    0.06987869
    0.01789925    0.07986135
    0.01789925    0.08984402
    0.01789925    0.09982669
    0.01789925    0.10980936
    0.01789925    0.11979203
    0.01789925    0.12977470
    0.01789925    0.13975737
    0.01789925    0.14974004
    0.01789925    0.15972271
    0.01789925    0.16970538
    0.01789925    0.17968805
    0.01789925    0.18967072
    0.01789925    0.19965339
    0.03572951   -0.19876020
    0.03572951   -0.18882219
    0.03572951   -0.17888418
    0.03572951   -0.16894617
    0.03572951   -0.15900816
    0.03572951   -0.14907015
    0.03572951   -0.13913214
    0.03572951   -0.12919413
    0.03572951   -0.11925612
    0.03572951   -0.10931811
    0.03572951   -0.09938010
    0.03572951   -0.08944209
    0.03572951   -0.07950408
    0.03572951   -0.06956607
    0.03572951   -0.05962806
    0.03572951   -0.04969005
    0.03572951   -0.03975204
    0.03572951   -0.02981403
    0.03572951   -0.01987602
    0.03572951   -0.00993801
    0.03572951    0.00000000
    0.03572951    0.00993801
    0.03572951    0.01987602
    0.03572951    0.02981403
    0.03572951    0.03975204
    0.03572951    0.04969005
    0.03572951    0.05962806
    0.03572951    0.06956607
    0.03572951    0.07950408
    0.03572951    0.08944209
    0.03572951    0.09938010
    0.03572951    0.10931811
    0.03572951    0.11925612
    0.03572951    0.12919413
    0.03572951    0.13913214
    0.03572951    0.14907015
    0.03572951    0.15900816
    0.03572951    0.16894617
    0.03572951    0.17888418
    0.03572951    0.18882219
    0.03572951    0.19876020
    0.05343404   -0.19720514
    0.05343404   -0.18734488
    0.05343404   -0.17748463
    0.05343404   -0.16762437
    0.05343404   -0.15776411
    0.05343404   -0.14790386
    0.05343404   -0.13804360
    0.05343404   -0.12818334
    0.05343404   -0.11832308
    0.05343404   -0.10846283
    0.05343404   -0.09860257
    0.05343404   -0.08874231
    0.05343404   -0.07888206
    0.05343404   -0.06902180
    0.05343404   -0.05916154
    0.05343404   -0.04930129
    0.05343404   -0.03944103
    0.05343404   -0.02958077
    0.05343404   -0.01972051
    0.05343404   -0.00986026
    0.05343404    0.00000000
    0.05343404    0.00986026
    0.05343404    0.01972051
    0.05343404    0.02958077
    0.05343404    0.03944103
    0.05343404    0.04930129
    0.05343404    0.05916154
    0.05343404    0.06902180
    0.05343404    0.07888206
    0.05343404    0.08874231
    0.05343404    0.09860257
    0.05343404    0.10846283
    0.05343404    0.11832308
    0.05343404    0.12818334
    0.05343404    0.13804360
    0.05343404    0.14790386
    0.05343404    0.15776411
    0.05343404    0.16762437
    0.05343404    0.17748463
    0.05343404    0.18734488
    0.05343404    0.19720514
    0.07096544   -0.19511070
    0.07096544   -0.18535517
    0.07096544   -0.17559963
    0.07096544   -0.16584410
    0.07096544   -0.15608856
    0.07096544   -0.14633303
    0.07096544   -0.13657749
    0.07096544   -0.12682196
    0.07096544   -0.11706642
    0.07096544   -0.10731089
    0.07096544   -0.09755535
    0.07096544   -0.08779982
    0.07096544   -0.07804428
    0.07096544   -0.06828875
    0.07096544   -0.05853321
    0.07096544   -0.04877768
    0.07096544   -0.03902214
    0.07096544   -0.02926661
    0.07096544   -0.01951107
    0.07096544   -0.00975554
    0.07096544    0.00000000
    0.07096544    0.00975554
    0.07096544    0.01951107
    0.07096544    0.02926661
    0.07096544    0.03902214
    0.07096544    0.04877768
    0.07096544    0.05853321
    0.07096544    0.06828875
    0.07096544    0.07804428
    0.07096544    0.08779982
    0.07096544    0.09755535
    0.07096544    0.10731089
    0.07096544    0.11706642
    0.07096544    0.12682196
    0.07096544    0.13657749
    0.07096544    0.14633303
    0.07096544    0.15608856
    0.07096544    0.16584410
    0.07096544    0.17559963
    0.07096544    0.18535517
    0.07096544    0.19511070
    0.08826596   -0.19250657
    0.08826596   -0.18288124
    0.08826596   -0.17325591
    0.08826596   -0.16363059
    0.08826596   -0.15400526
    0.08826596   -0.14437993
    0.08826596   -0.13475460
    0.08826596   -0.12512927
    0.08826596   -0.11550394
    0.08826596   -0.10587861
    0.08826596   -0.09625329
    0.08826596   -0.08662796
    0.08826596   -0.07700263
    0.08826596   -0.06737730
    0.08826596   -0.05775197
    0.08826596   -0.04812664
    0.08826596   -0.03850131
    0.08826596   -0.02887599
    0.08826596   -0.01925066
    0.08826596   -0.00962533
    0.08826596    0.00000000
    0.08826596    0.00962533
    0.08826596    0.01925066
    0.08826596    0.02887599
    0.08826596    0.03850131
    0.08826596    0.04812664
    0.08826596    0.05775197
    0.08826596    0.06737730
    0.08826596    0.07700263
    0.08826596    0.08662796
    0.08826596    0.09625329
    0.08826596    0.10587861
    0.08826596    0.11550394
    0.08826596    0.12512927
    0.08826596    0.13475460
    0.08826596    0.14437993
    0.08826596    0.15400526
    0.08826596    0.16363059
    0.08826596    0.17325591
    0.08826596    0.18288124
    0.08826596    0.19250657
    0.10529550   -0.18945045
    0.10529550   -0.17997793
    0.10529550   -0.17050541
    0.10529550   -0.16103288
    0.10529550   -0.15156036
    0.10529550   -0.14208784
    0.10529550   -0.13261532
    0.10529550   -0.12314279
    0.10529550   -0.11367027
    0.10529550   -0.10419775
    0.10529550   -0.09472523
    0.10529550   -0.08525270
    0.10529550   -0.07578018
    0.10529550   -0.06630766
    0.10529550   -0.05683514
    0.10529550   -0.04736261
    0.10529550   -0.03789009
    0.10529550   -0.02841757
    0.10529550   -0.01894505
    0.10529550   -0.00947252
    0.10529550    0.00000000
    0.10529550    0.00947252
    0.10529550    0.01894505
    0.10529550    0.02841757
    0.10529550    0.03789009
    0.10529550    0.04736261
    0.10529550    0.05683514
    0.10529550    0.06630766
    0.10529550    0.07578018
    0.10529550    0.08525270
    0.10529550    0.09472523
    0.10529550    0.10419775
    0.10529550    0.11367027
    0.10529550    0.12314279
    0.10529550    0.13261532
    0.10529550    0.14208784
    0.10529550    0.15156036
    0.10529550    0.16103288
    0.10529550    0.17050541
    0.10529550    0.17997793
    0.10529550    0.18945045
    0.12203183   -0.18600852
    0.12203183   -0.17670809
    0.12203183   -0.16740766
    0.12203183   -0.15810724
    0.12203183   -0.14880681
    0.12203183   -0.13950639
    0.12203183   -0.13020596
    0.12203183   -0.12090553
    0.12203183   -0.11160511
    0.12203183   -0.10230468
    0.12203183   -0.09300426
    0.12203183   -0.08370383
    0.12203183   -0.07440341
    0.12203183   -0.06510298
    0.12203183   -0.05580255
    0.12203183   -0.04650213
    0.12203183   -0.03720170
    0.12203183   -0.02790128
    0.12203183   -0.01860085
    0.12203183   -0.00930043
    0.12203183    0.00000000
    0.12203183    0.00930043
    0.12203183    0.01860085
    0.12203183    0.02790128
    0.12203183    0.03720170
    0.12203183    0.04650213
    0.12203183    0.05580255
    0.12203183    0.06510298
    0.12203183    0.07440341
    0.12203183    0.08370383
    0.12203183    0.09300426
    0.12203183    0.10230468
    0.12203183    0.11160511
    0.12203183    0.12090553
    0.12203183    0.13020596
    0.12203183    0.13950639
    0.12203183    0.14880681
    0.12203183    0.15810724
    0.12203183    0.16740766
    0.12203183    0.17670809
    0.12203183    0.18600852
    0.13843255   -0.18224908
    0.13843255   -0.17313663
    0.13843255   -0.16402418
    0.13843255   -0.15491172
    0.13843255   -0.14579927
    0.13843255   -0.13668681
    0.13843255   -0.12757436
    0.13843255   -0.11846190
    0.13843255   -0.10934945
    0.13843255   -0.10023700
    0.13843255   -0.09112454
    0.13843255   -0.08201209
    0.13843255   -0.07289963
    0.13843255   -0.06378718
    0.13843255   -0.05467473
    0.13843255   -0.04556227
    0.13843255   -0.03644982
    0.13843255   -0.02733736
    0.13843255   -0.01822491
    0.13843255   -0.00911245
    0.13843255    0.00000000
    0.13843255    0.00911245
    0.13843255    0.01822491
    0.13843255    0.02733736
    0.13843255    0.03644982
    0.13843255    0.04556227
    0.13843255    0.05467473
    0.13843255    0.06378718
    0.13843255    0.07289963
    0.13843255    0.08201209
    0.13843255    0.09112454
    0.13843255    0.10023700
    0.13843255    0.10934945
    0.13843255    0.11846190
    0.13843255    0.12757436
    0.13843255    0.13668681
    0.13843255    0.14579927
    0.13843255    0.15491172
    0.13843255    0.16402418
    0.13843255    0.17313663
    0.13843255    0.18224908
    0.15446471   -0.17824304
    0.15446471   -0.16933089
    0.15446471   -0.16041874
    0.15446471   -0.15150659
    0.15446471   -0.14259444
    0.15446471   -0.13368228
    0.15446471   -0.12477013
    0.15446471   -0.11585798
    0.15446471   -0.10694583
    0.15446471   -0.09803367
    0.15446471   -0.08912152
    0.15446471   -0.08020937
    0.15446471   -0.07129722
    0.15446471   -0.06238507
    0.15446471   -0.05347291
    0.15446471   -0.04456076
    0.15446471   -0.03564861
    0.15446471   -0.02673646
    0.15446471   -0.01782430
    0.15446471   -0.00891215
    0.15446471    0.00000000
    0.15446471    0.00891215
    0.15446471    0.01782430
    0.15446471    0.02673646
    0.15446471    0.03564861
    0.15446471    0.04456076
    0.15446471    0.05347291
    0.15446471    0.06238507
    0.15446471    0.07129722
    0.15446471    0.08020937
    0.15446471    0.08912152
    0.15446471    0.09803367
    0.15446471    0.10694583
    0.15446471    0.11585798
    0.15446471    0.12477013
    0.15446471    0.13368228
    0.15446471    0.14259444
    0.15446471    0.15150659
    0.15446471    0.16041874
    0.15446471    0.16933089
    0.15446471    0.17824304
    0.17014821   -0.17404687
    0.17014821   -0.16534453
    0.17014821   -0.15664218
    0.17014821   -0.14793984
    0.17014821   -0.13923750
    0.17014821   -0.13053515
    0.17014821   -0.12183281
    0.17014821   -0.11313046
    0.17014821   -0.10442812
    0.17014821   -0.09572578
    0.17014821   -0.08702343
    0.17014821   -0.07832109
    0.17014821   -0.06961875
    0.17014821   -0.06091640
    0.17014821   -0.05221406
    0.17014821   -0.04351172
    0.17014821   -0.03480937
    0.17014821   -0.02610703
    0.17014821   -0.01740469
    0.17014821   -0.00870234
    0.17014821    0.00000000
    0.17014821    0.00870234
    0.17014821    0.01740469
    0.17014821    0.02610703
    0.17014821    0.03480937
    0.17014821    0.04351172
    0.17014821    0.05221406
    0.17014821    0.06091640
    0.17014821    0.06961875
    0.17014821    0.07832109
    0.17014821    0.08702343
    0.17014821    0.09572578
    0.17014821    0.10442812
    0.17014821    0.11313046
    0.17014821    0.12183281
    0.17014821    0.13053515
    0.17014821    0.13923750
    0.17014821    0.14793984
    0.17014821    0.15664218
    0.17014821    0.16534453
    0.17014821    0.17404687
    0.18540613   -0.16974021
    0.18540613   -0.16125320
    0.18540613   -0.15276619
    0.18540613   -0.14427918
    0.18540613   -0.13579217
    0.18540613   -0.12730516
    0.18540613   -0.11881815
    0.18540613   -0.11033114
    0.18540613   -0.10184413
    0.18540613   -0.09335712
    0.18540613   -0.08487011
    0.18540613   -0.07638310
    0.18540613   -0.06789608
    0.18540613   -0.05940907
    0.18540613   -0.05092206
    0.18540613   -0.04243505
    0.18540613   -0.03394804
    0.18540613   -0.02546103
    0.18540613   -0.01697402
    0.18540613   -0.00848701
    0.18540613    0.00000000
    0.18540613    0.00848701
    0.18540613    0.01697402
    0.18540613    0.02546103
    0.18540613    0.03394804
    0.18540613    0.04243505
    0.18540613    0.05092206
    0.18540613    0.05940907
    0.18540613    0.06789608
    0.18540613    0.07638310
    0.18540613    0.08487011
    0.18540613    0.09335712
    0.18540613    0.10184413
    0.18540613    0.11033114
    0.18540613    0.11881815
    0.18540613    0.12730516
    0.18540613    0.13579217
    0.18540613    0.14427918
    0.18540613    0.15276619
    0.18540613    0.16125320
    0.18540613    0.16974021
    0.20030828   -0.16535870
    0.20030828   -0.15709077
    0.20030828   -0.14882283
    0.20030828   -0.14055490
    0.20030828   -0.13228696
    0.20030828   -0.12401903
    0.20030828   -0.11575109
    0.20030828   -0.10748316
    0.20030828   -0.09921522
    0.20030828   -0.09094729
    0.20030828   -0.08267935
    0.20030828   -0.07441142
    0.20030828   -0.06614348
    0.20030828   -0.05787555
    0.20030828   -0.04960761
    0.20030828   -0.04133968
    0.20030828   -0.03307174
    0.20030828   -0.02480381
    0.20030828   -0.01653587
    0.20030828   -0.00826794
    0.20030828    0.00000000
    0.20030828    0.00826794
    0.20030828    0.01653587
    0.20030828    0.02480381
    0.20030828    0.03307174
    0.20030828    0.04133968
    0.20030828    0.04960761
    0.20030828    0.05787555
    0.20030828    0.06614348
    0.20030828    0.07441142
    0.20030828    0.08267935
    0.20030828    0.09094729
    0.20030828    0.09921522
    0.20030828    0.10748316
    0.20030828    0.11575109
    0.20030828    0.12401903
    0.20030828    0.13228696
    0.20030828    0.14055490
    0.20030828    0.14882283
    0.20030828    0.15709077
    0.20030828    0.16535870
    0.21477340   -0.16097661
    0.21477340   -0.15292778
    0.21477340   -0.14487895
    0.21477340   -0.13683012
    0.21477340   -0.12878129
    0.21477340   -0.12073246
    0.21477340   -0.11268363
    0.21477340   -0.10463480
    0.21477340   -0.09658597
    0.21477340   -0.08853714
    0.21477340   -0.08048831
    0.21477340   -0.07243948
    0.21477340   -0.06439065
    0.21477340   -0.05634181
    0.21477340   -0.04829298
    0.21477340   -0.04024415
    0.21477340   -0.03219532
    0.21477340   -0.02414649
    0.21477340   -0.01609766
    0.21477340   -0.00804883
    0.21477340    0.00000000
    0.21477340    0.00804883
    0.21477340    0.01609766
    0.21477340    0.02414649
    0.21477340    0.03219532
    0.21477340    0.04024415
    0.21477340    0.04829298
    0.21477340    0.05634181
    0.21477340    0.06439065
    0.21477340    0.07243948
    0.21477340    0.08048831
    0.21477340    0.08853714
    0.21477340    0.09658597
    0.21477340    0.10463480
    0.21477340    0.11268363
    0.21477340    0.12073246
    0.21477340    0.12878129
    0.21477340    0.13683012
    0.21477340    0.14487895
    0.21477340    0.15292778
    0.21477340    0.16097661
    0.22887935   -0.15661578
    0.22887935   -0.14878500
    0.22887935   -0.14095421
    0.22887935   -0.13312342
    0.22887935   -0.12529263
    0.22887935   -0.11746184
    0.22887935   -0.10963105
    0.22887935   -0.10180026
    0.22887935   -0.09396947
    0.22887935   -0.08613868
    0.22887935   -0.07830789
    0.22887935   -0.07047710
    0.22887935   -0.06264631
    0.22887935   -0.05481552
    0.22887935   -0.04698474
    0.22887935   -0.03915395
    0.22887935   -0.03132316
    0.22887935   -0.02349237
    0.22887935   -0.01566158
    0.22887935   -0.00783079
    0.22887935    0.00000000
    0.22887935    0.00783079
    0.22887935    0.01566158
    0.22887935    0.02349237
    0.22887935    0.03132316
    0.22887935    0.03915395
    0.22887935    0.04698474
    0.22887935    0.05481552
    0.22887935    0.06264631
    0.22887935    0.07047710
    0.22887935    0.07830789
    0.22887935    0.08613868
    0.22887935    0.09396947
    0.22887935    0.10180026
    0.22887935    0.10963105
    0.22887935    0.11746184
    0.22887935    0.12529263
    0.22887935    0.13312342
    0.22887935    0.14095421
    0.22887935    0.14878500
    0.22887935    0.15661578
    0.24257190   -0.15233276
    0.24257190   -0.14471612
    0.24257190   -0.13709948
    0.24257190   -0.12948285
    0.24257190   -0.12186621
    0.24257190   -0.11424957
    0.24257190   -0.10663293
    0.24257190   -0.09901629
    0.24257190   -0.09139966
    0.24257190   -0.08378302
    0.24257190   -0.07616638
    0.24257190   -0.06854974
    0.24257190   -0.06093310
    0.24257190   -0.05331647
    0.24257190   -0.04569983
    0.24257190   -0.03808319
    0.24257190   -0.03046655
    0.24257190   -0.02284991
    0.24257190   -0.01523328
    0.24257190   -0.00761664
    0.24257190    0.00000000
    0.24257190    0.00761664
    0.24257190    0.01523328
    0.24257190    0.02284991
    0.24257190    0.03046655
    0.24257190    0.03808319
    0.24257190    0.04569983
    0.24257190    0.05331647
    0.24257190    0.06093310
    0.24257190    0.06854974
    0.24257190    0.07616638
    0.24257190    0.08378302
    0.24257190    0.09139966
    0.24257190    0.09901629
    0.24257190    0.10663293
    0.24257190    0.11424957
    0.24257190    0.12186621
    0.24257190    0.12948285
    0.24257190    0.13709948
    0.24257190    0.14471612
    0.24257190    0.15233276
    0.25588861   -0.14815046
    0.25588861   -0.14074294
    0.25588861   -0.13333542
    0.25588861   -0.12592789
    0.25588861   -0.11852037
    0.25588861   -0.11111285
    0.25588861   -0.10370532
    0.25588861   -0.09629780
    0.25588861   -0.08889028
    0.25588861   -0.08148276
    0.25588861   -0.07407523
    0.25588861   -0.06666771
    0.25588861   -0.05926019
    0.25588861   -0.05185266
    0.25588861   -0.04444514
    0.25588861   -0.03703762
    0.25588861   -0.02963009
    0.25588861   -0.02222257
    0.25588861   -0.01481505
    0.25588861   -0.00740752
    0.25588861    0.00000000
    0.25588861    0.00740752
    0.25588861    0.01481505
    0.25588861    0.02222257
    0.25588861    0.02963009
    0.25588861    0.03703762
    0.25588861    0.04444514
    0.25588861    0.05185266
    0.25588861    0.05926019
    0.25588861    0.06666771
    0.25588861    0.07407523
    0.25588861    0.08148276
    0.25588861    0.08889028
    0.25588861    0.09629780
    0.25588861    0.10370532
    0.25588861    0.11111285
    0.25588861    0.11852037
    0.25588861    0.12592789
    0.25588861    0.13333542
    0.25588861    0.14074294
    0.25588861    0.14815046
    0.26885715   -0.14408970
    0.26885715   -0.13688522
    0.26885715   -0.12968073
    0.26885715   -0.12247625
    0.26885715   -0.11527176
    0.26885715   -0.10806728
    0.26885715   -0.10086279
    0.26885715   -0.09365831
    0.26885715   -0.08645382
    0.26885715   -0.07924934
    0.26885715   -0.07204485
    0.26885715   -0.06484037
    0.26885715   -0.05763588
    0.26885715   -0.05043140
    0.26885715   -0.04322691
    0.26885715   -0.03602243
    0.26885715   -0.02881794
    0.26885715   -0.02161346
    0.26885715   -0.01440897
    0.26885715   -0.00720449
    0.26885715    0.00000000
    0.26885715    0.00720449
    0.26885715    0.01440897
    0.26885715    0.02161346
    0.26885715    0.02881794
    0.26885715    0.03602243
    0.26885715    0.04322691
    0.26885715    0.05043140
    0.26885715    0.05763588
    0.26885715    0.06484037
    0.26885715    0.07204485
    0.26885715    0.07924934
    0.26885715    0.08645382
    0.26885715    0.09365831
    0.26885715    0.10086279
    0.26885715    0.10806728
    0.26885715    0.11527176
    0.26885715    0.12247625
    0.26885715    0.12968073
    0.26885715    0.13688522
    0.26885715    0.14408970
    0.28145242   -0.14018314
    0.28145242   -0.13317398
    0.28145242   -0.12616482
    0.28145242   -0.11915566
    0.28145242   -0.11214651
    0.28145242   -0.10513735
    0.28145242   -0.09812819
    0.28145242   -0.09111904
    0.28145242   -0.08410988
    0.28145242   -0.07710072
    0.28145242   -0.07009157
    0.28145242   -0.06308241
    0.28145242   -0.05607325
    0.28145242   -0.04906410
    0.28145242   -0.04205494
    0.28145242   -0.03504578
    0.28145242   -0.02803663
    0.28145242   -0.02102747
    0.28145242   -0.01401831
    0.28145242   -0.00700916
    0.28145242    0.00000000
    0.28145242    0.00700916
    0.28145242    0.01401831
    0.28145242    0.02102747
    0.28145242    0.02803663
    0.28145242    0.03504578
    0.28145242    0.04205494
    0.28145242    0.04906410
    0.28145242    0.05607325
    0.28145242    0.06308241
    0.28145242    0.07009157
    0.28145242    0.07710072
    0.28145242    0.08410988
    0.28145242    0.09111904
    0.28145242    0.09812819
    0.28145242    0.10513735
    0.28145242    0.11214651
    0.28145242    0.11915566
    0.28145242    0.12616482
    0.28145242    0.13317398
    0.28145242    0.14018314
    0.29369777   -0.13644377
    0.29369777   -0.12962158
    0.29369777   -0.12279939
    0.29369777   -0.11597721
    0.29369777   -0.10915502
    0.29369777   -0.10233283
    0.29369777   -0.09551064
    0.29369777   -0.08868845
    0.29369777   -0.08186626
    0.29369777   -0.07504407
    0.29369777   -0.06822189
    0.29369777   -0.06139970
    0.29369777   -0.05457751
    0.29369777   -0.04775532
    0.29369777   -0.04093313
    0.29369777   -0.03411094
    0.29369777   -0.02728875
    0.29369777   -0.02046657
    0.29369777   -0.01364438
    0.29369777   -0.00682219
    0.29369777    0.00000000
    0.29369777    0.00682219
    0.29369777    0.01364438
    0.29369777    0.02046657
    0.29369777    0.02728875
    0.29369777    0.03411094
    0.29369777    0.04093313
    0.29369777    0.04775532
    0.29369777    0.05457751
    0.29369777    0.06139970
    0.29369777    0.06822189
    0.29369777    0.07504407
    0.29369777    0.08186626
    0.29369777    0.08868845
    0.29369777    0.09551064
    0.29369777    0.10233283
    0.29369777    0.10915502
    0.29369777    0.11597721
    0.29369777    0.12279939
    0.29369777    0.12962158
    0.29369777    0.13644377
    0.30562928   -0.13287725
    0.30562928   -0.12623339
    0.30562928   -0.11958953
    0.30562928   -0.11294567
    0.30562928   -0.10630180
    0.30562928   -0.09965794
    0.30562928   -0.09301408
    0.30562928   -0.08637021
    0.30562928   -0.07972635
    0.30562928   -0.07308249
    0.30562928   -0.06643863
    0.30562928   -0.05979476
    0.30562928   -0.05315090
    0.30562928   -0.04650704
    0.30562928   -0.03986318
    0.30562928   -0.03321931
    0.30562928   -0.02657545
    0.30562928   -0.01993159
    0.30562928   -0.01328773
    0.30562928   -0.00664386
    0.30562928    0.00000000
    0.30562928    0.00664386
    0.30562928    0.01328773
    0.30562928    0.01993159
    0.30562928    0.02657545
    0.30562928    0.03321931
    0.30562928    0.03986318
    0.30562928    0.04650704
    0.30562928    0.05315090
    0.30562928    0.05979476
    0.30562928    0.06643863
    0.30562928    0.07308249
    0.30562928    0.07972635
    0.30562928    0.08637021
    0.30562928    0.09301408
    0.30562928    0.09965794
    0.30562928    0.10630180
    0.30562928    0.11294567
    0.30562928    0.11958953
    0.30562928    0.12623339
    0.30562928    0.13287725
    0.31725977   -0.12949309
    0.31725977   -0.12301844
    0.31725977   -0.11654378
    0.31725977   -0.11006913
    0.31725977   -0.10359447
    0.31725977   -0.09711982
    0.31725977   -0.09064516
    0.31725977   -0.08417051
    0.31725977   -0.07769585
    0.31725977   -0.07122120
    0.31725977   -0.06474655
    0.31725977   -0.05827189
    0.31725977   -0.05179724
    0.31725977   -0.04532258
    0.31725977   -0.03884793
    0.31725977   -0.03237327
    0.31725977   -0.02589862
    0.31725977   -0.01942396
    0.31725977   -0.01294931
    0.31725977   -0.00647465
    0.31725977    0.00000000
    0.31725977    0.00647465
    0.31725977    0.01294931
    0.31725977    0.01942396
    0.31725977    0.02589862
    0.31725977    0.03237327
    0.31725977    0.03884793
    0.31725977    0.04532258
    0.31725977    0.05179724
    0.31725977    0.05827189
    0.31725977    0.06474655
    0.31725977    0.07122120
    0.31725977    0.07769585
    0.31725977    0.08417051
    0.31725977    0.09064516
    0.31725977    0.09711982
    0.31725977    0.10359447
    0.31725977    0.11006913
    0.31725977    0.11654378
    0.31725977    0.12301844
    0.31725977    0.12949309
    0.32860328   -0.12629779
    0.32860328   -0.11998290
    0.32860328   -0.11366801
    0.32860328   -0.10735312
    0.32860328   -0.10103823
    0.32860328   -0.09472334
    0.32860328   -0.08840845
    0.32860328   -0.08209356
    0.32860328   -0.07577867
    0.32860328   -0.06946379
    0.32860328   -0.06314890
    0.32860328   -0.05683401
    0.32860328   -0.05051912
    0.32860328   -0.04420423
    0.32860328   -0.03788934
    0.32860328   -0.03157445
    0.32860328   -0.02525956
    0.32860328   -0.01894467
    0.32860328   -0.01262978
    0.32860328   -0.00631489
    0.32860328    0.00000000
    0.32860328    0.00631489
    0.32860328    0.01262978
    0.32860328    0.01894467
    0.32860328    0.02525956
    0.32860328    0.03157445
    0.32860328    0.03788934
    0.32860328    0.04420423
    0.32860328    0.05051912
    0.32860328    0.05683401
    0.32860328    0.06314890
    0.32860328    0.06946379
    0.32860328    0.07577867
    0.32860328    0.08209356
    0.32860328    0.08840845
    0.32860328    0.09472334
    0.32860328    0.10103823
    0.32860328    0.10735312
    0.32860328    0.11366801
    0.32860328    0.11998290
    0.32860328    0.12629779
    0.33967490   -0.12329495
    0.33967490   -0.11713020
    0.33967490   -0.11096546
    0.33967490   -0.10480071
    0.33967490   -0.09863596
    0.33967490   -0.09247121
    0.33967490   -0.08630647
    0.33967490   -0.08014172
    0.33967490   -0.07397697
    0.33967490   -0.06781222
    0.33967490   -0.06164748
    0.33967490   -0.05548273
    0.33967490   -0.04931798
    0.33967490   -0.04315323
    0.33967490   -0.03698849
    0.33967490   -0.03082374
    0.33967490   -0.02465899
    0.33967490   -0.01849424
    0.33967490   -0.01232950
    0.33967490   -0.00616475
    0.33967490    0.00000000
    0.33967490    0.00616475
    0.33967490    0.01232950
    0.33967490    0.01849424
    0.33967490    0.02465899
    0.33967490    0.03082374
    0.33967490    0.03698849
    0.33967490    0.04315323
    0.33967490    0.04931798
    0.33967490    0.05548273
    0.33967490    0.06164748
    0.33967490    0.06781222
    0.33967490    0.07397697
    0.33967490    0.08014172
    0.33967490    0.08630647
    0.33967490    0.09247121
    0.33967490    0.09863596
    0.33967490    0.10480071
    0.33967490    0.11096546
    0.33967490    0.11713020
    0.33967490    0.12329495
    0.35048047   -0.12048879
    0.35048047   -0.11446435
    0.35048047   -0.10843991
    0.35048047   -0.10241547
    0.35048047   -0.09639104
    0.35048047   -0.09036660
    0.35048047   -0.08434216
    0.35048047   -0.07831772
    0.35048047   -0.07229328
    0.35048047   -0.06626884
    0.35048047   -0.06024440
    0.35048047   -0.05421996
    0.35048047   -0.04819552
    0.35048047   -0.04217108
    0.35048047   -0.03614664
    0.35048047   -0.03012220
    0.35048047   -0.02409776
    0.35048047   -0.01807332
    0.35048047   -0.01204888
    0.35048047   -0.00602444
    0.35048047    0.00000000
    0.35048047    0.00602444
    0.35048047    0.01204888
    0.35048047    0.01807332
    0.35048047    0.02409776
    0.35048047    0.03012220
    0.35048047    0.03614664
    0.35048047    0.04217108
    0.35048047    0.04819552
    0.35048047    0.05421996
    0.35048047    0.06024440
    0.35048047    0.06626884
    0.35048047    0.07229328
    0.35048047    0.07831772
    0.35048047    0.08434216
    0.35048047    0.09036660
    0.35048047    0.09639104
    0.35048047    0.10241547
    0.35048047    0.10843991
    0.35048047    0.11446435
    0.35048047    0.12048879
    0.36104558   -0.11787641
    0.36104558   -0.11198259
    0.36104558   -0.10608877
    0.36104558   -0.10019495
    0.36104558   -0.09430113
    0.36104558   -0.08840731
    0.36104558   -0.08251349