 VARIABLES = "X" "Y" "RHO" "U" "V" "pres" "mach"      "log(rms)"
 Zone I=           5 , J=           5 , F=POINT
   0.00000000  -0.20000000   0.98588940   0.46535466   0.04686364   0.70274481   0.47134326  -4.69093229
   0.00000000  -0.10000000   0.98182751   0.47326800   0.02107004   0.69842351   0.47578592  -6.62056636
   0.00000000   0.00000000   0.97776562   0.47823956   0.00000000   0.69410221   0.48022858  -6.61909474
   0.00000000   0.10000000   0.98182751   0.47326800  -0.02107004   0.69842351   0.47578592  -6.62056636
   0.00000000   0.20000000   0.98588940   0.46535466  -0.04686364   0.70274481   0.47134326  -4.68834047
   0.26157940  -0.14698002   1.01911368   0.49387877   0.10205257   0.74257703   0.50069186  -6.62530974
   0.26157940  -0.07349001   1.01412157   0.50690843   0.04215387   0.73645437   0.50503763  -6.62770556
   0.26157940   0.00000000   1.00912946   0.51238616   0.00000000   0.73033172   0.50938339  -6.62823344
   0.26157940   0.07349001   1.01412157   0.50690843  -0.04215387   0.73645437   0.50503763  -6.62770556
   0.26157940   0.14698002   1.01911368   0.49387877  -0.10205257   0.74257703   0.50069186  -6.62530974
   0.48344086  -0.10036567   0.90000272   0.56220030   0.00168296   0.63794489   0.57946340  -6.66409829
   0.48344086  -0.05018284   0.90611319   0.57899787   0.00795387   0.64197704   0.58442750  -6.65514890
   0.48344086   0.00000000   0.91222366   0.58545788  -0.00000000   0.64600919   0.58939159  -6.64433157
   0.48344086   0.05018284   0.90611319   0.57899787  -0.00795387   0.64197704   0.58442750  -6.65514890
   0.48344086   0.10036567   0.90000272   0.56220030  -0.00168296   0.63794489   0.57946340  -6.66409829
   0.72635594  -0.14375864   0.76624267   0.61610607  -0.06899014   0.53167360   0.63184277  -6.74280170
   0.72635594  -0.07187932   0.77531212   0.62750578  -0.02582053   0.53898087   0.63655749  -6.73073096
   0.72635594   0.00000000   0.78438157   0.63330612  -0.00000000   0.54628814   0.64127219  -6.71679226
   0.72635594   0.07187932   0.77531212   0.62750578   0.02582053   0.53898087   0.63655749  -6.73073096
   0.72635594   0.14375864   0.76624267   0.61610607   0.06899014   0.53167360   0.63184277  -6.74280170
   1.00000000  -0.15714286   0.73552619   0.63302811  -0.01548417   0.54512416   0.62239425  -4.77928984
   1.00000000  -0.07857143   0.73732478   0.63756464  -0.01269057   0.54549872   0.62729607  -6.71200448
   1.00000000   0.00000000   0.73912337   0.64222920  -0.00000000   0.54587328   0.63219787  -6.70545001
   1.00000000   0.07857143   0.73732478   0.63756464   0.01269057   0.54549872   0.62729607  -6.71200448
   1.00000000   0.15714286   0.73552619   0.63302811   0.01548417   0.54512416   0.62239425  -4.76400281
