 VARIABLES = "X" "Y" "RHO" "U" "V" "pres" "mach"      "log(rms)"
 Zone I=          11 , J=          11 , F=POINT
   0.00000000  -0.10000000   0.97961088   0.42270451   0.01733747   0.69486827   0.42496491  -6.70260819
   0.00000000  -0.08000000   0.97904810   0.42374446   0.01420739   0.69426376   0.42583738  -9.47377366
   0.00000000  -0.06000000   0.97780547   0.42582758   0.01082766   0.69292187   0.42786754  -9.47217498
   0.00000000  -0.04000000   0.97664833   0.42795507   0.00729444   0.69165734   0.42998914  -9.47026437
   0.00000000  -0.02000000   0.97592921   0.42943594   0.00364863   0.69085980   0.43147177  -9.46879817
   0.00000000   0.00000000   0.97568738   0.42995285  -0.00000000   0.69058939   0.43199049  -9.46826743
   0.00000000   0.02000000   0.97592921   0.42943594  -0.00364863   0.69085980   0.43147177  -9.46879839
   0.00000000   0.04000000   0.97664833   0.42795507  -0.00729444   0.69165734   0.42998914  -9.47027104
   0.00000000   0.06000000   0.97780547   0.42582758  -0.01082766   0.69292187   0.42786754  -9.47218242
   0.00000000   0.08000000   0.97904810   0.42374446  -0.01420739   0.69426376   0.42583738  -9.47377512
   0.00000000   0.10000000   0.97961088   0.42270451  -0.01733747   0.69486827   0.42496491  -6.66061438
   0.19098812  -0.08432856   1.01289965   0.44428243   0.05344949   0.73210178   0.44513722  -9.41880955
   0.19098812  -0.06746285   1.01146287   0.44627687   0.04102532   0.73052284   0.44577640  -9.42150886
   0.19098812  -0.05059714   1.00878810   0.44833320   0.03053569   0.72751024   0.44724866  -9.42413500
   0.19098812  -0.03373143   1.00694396   0.45019449   0.02037453   0.72529419   0.44876963  -9.42469577
   0.19098812  -0.01686571   1.00608641   0.45146299   0.01014022   0.72415590   0.44983110  -9.42409619
   0.19098812   0.00000000   1.00583500   0.45190334   0.00000000   0.72380002   0.45020468  -9.42375657
   0.19098812   0.01686571   1.00608641   0.45146299  -0.01014022   0.72415590   0.44983110  -9.42409616
   0.19098812   0.03373143   1.00694396   0.45019449  -0.02037453   0.72529419   0.44876963  -9.42469619
   0.19098812   0.05059714   1.00878810   0.44833320  -0.03053569   0.72751024   0.44724866  -9.42413488
   0.19098812   0.06746285   1.01146287   0.44627687  -0.04102532   0.73052284   0.44577640  -9.42150923
   0.19098812   0.08432856   1.01289965   0.44428243  -0.05344949   0.73210178   0.44513722  -9.41880961
   0.31012809  -0.06586262   0.99465391   0.51652378   0.07088938   0.72404595   0.51663266  -9.29127449
   0.31012809  -0.05269010   0.99364651   0.51854027   0.05520231   0.72283193   0.51682064  -9.29442825
   0.31012809  -0.03951757   0.99173362   0.51993858   0.04090306   0.72038897   0.51723707  -9.29786441
   0.31012809  -0.02634505   0.99048737   0.52091174   0.02718600   0.71850801   0.51765417  -9.29860628
   0.31012809  -0.01317252   0.99006805   0.52152226   0.01352473   0.71758715   0.51794974  -9.29754322
   0.31012809   0.00000000   0.98998950   0.52172946   0.00000000   0.71731831   0.51805666  -9.29691398
   0.31012809   0.01317252   0.99006805   0.52152226  -0.01352473   0.71758715   0.51794974  -9.29754296
   0.31012809   0.02634505   0.99048737   0.52091174  -0.02718600   0.71850801   0.51765417  -9.29860641
   0.31012809   0.03951757   0.99173362   0.51993858  -0.04090306   0.72038897   0.51723707  -9.29786409
   0.31012809   0.05269010   0.99364651   0.51854027  -0.05520231   0.72283193   0.51682064  -9.29442877
   0.31012809   0.06586262   0.99465391   0.51652378  -0.07088938   0.72404595   0.51663266  -9.29127452
   0.40194396  -0.05460077   0.90131190   0.64297480   0.05502439   0.64755362   0.64462930  -9.32905014
   0.40194396  -0.04368062   0.90255132   0.64343357   0.04600097   0.64855019   0.64416519  -9.32874594
   0.40194396  -0.03276046   0.90452515   0.64329527   0.03441679   0.64987807   0.64319052  -9.32670530
   0.40194396  -0.02184031   0.90573706   0.64277430   0.02299160   0.65029261   0.64228137  -9.32484794
   0.40194396  -0.01092015   0.90652866   0.64231808   0.01153877   0.65044783   0.64166607  -9.32294517
   0.40194396   0.00000000   0.90684275   0.64214704  -0.00000000   0.65051984   0.64144935  -9.32205646
   0.40194396   0.01092015   0.90652866   0.64231808  -0.01153877   0.65044783   0.64166607  -9.32294517
   0.40194396   0.02184031   0.90573706   0.64277430  -0.02299160   0.65029261   0.64228137  -9.32484760
   0.40194396   0.03276046   0.90452515   0.64329527  -0.03441679   0.64987807   0.64319052  -9.32670532
   0.40194396   0.04368062   0.90255132   0.64343357  -0.04600097   0.64855019   0.64416519  -9.32874708
   0.40194396   0.05460077   0.90131190   0.64297480  -0.05502439   0.64755362   0.64462930  -9.32905021
   0.47998800  -0.05020461   0.75330590   0.81420088   0.01239322   0.51969442   0.83227248  -9.17676224
   0.47998800  -0.04016369   0.75614844   0.81368534   0.01310108   0.52224094   0.83102172  -9.18042995
   0.47998800  -0.03012277   0.76111548   0.81203303   0.00971646   0.52653728   0.82830971  -9.18473905
   0.47998800  -0.02008185   0.76443524   0.80996330   0.00661417   0.52916372   0.82567958  -9.18639556
   0.47998800  -0.01004092   0.76627314   0.80837408   0.00349229   0.53049653   0.82385218  -9.18628668
   0.47998800   0.00000000   0.76691577   0.80779122  -0.00000000   0.53095271   0.82319367  -9.18606326
   0.47998800   0.01004092   0.76627314   0.80837408  -0.00349229   0.53049653   0.82385218  -9.18628669
   0.47998800   0.02008185   0.76443524   0.80996330  -0.00661417   0.52916372   0.82567958  -9.18639540
   0.47998800   0.03012277   0.76111548   0.81203303  -0.00971646   0.52653728   0.82830971  -9.18473956
   0.47998800   0.04016369   0.75614844   0.81368534  -0.01310108   0.52224094   0.83102172  -9.18043090
   0.47998800   0.05020461   0.75330590   0.81420088  -0.01239322   0.51969442   0.83227248  -9.17676250
   0.55495915  -0.05149938   0.60137296   1.00126811  -0.05415149   0.38190020   1.07168423  -8.73843715
   0.55495915  -0.04119951   0.60458264   1.00162285  -0.03948592   0.38474791   1.06988612  -8.74622718
   0.55495915  -0.03089963   0.61032104   1.00050283  -0.02968878   0.38987167   1.06595800  -8.75637476
   0.55495915  -0.02059975   0.61415597   0.99878388  -0.01964500   0.39336995   1.06214917  -8.75949455
   0.55495915  -0.01029988   0.61609579   0.99739117  -0.00953797   0.39521008   1.05951926  -8.75880945
   0.55495915   0.00000000   0.61672942   0.99687033  -0.00000000   0.39582797   1.05856817  -8.75826748
   0.55495915   0.01029988   0.61609579   0.99739117   0.00953797   0.39521008   1.05951926  -8.75880931
   0.55495915   0.02059975   0.61415597   0.99878388   0.01964500   0.39336995   1.06214917  -8.75949438
   0.55495915   0.03089963   0.61032104   1.00050283   0.02968878   0.38987167   1.06595800  -8.75637492
   0.55495915   0.04119951   0.60458264   1.00162285   0.03948592   0.38474791   1.06988612  -8.74622748
   0.55495915   0.05149938   0.60137296   1.00126811   0.05415149   0.38190020   1.07168423  -8.73843725
   0.62979753  -0.05783935   0.50038330   1.12089350  -0.12553813   0.28067226   1.27925597  -8.42702845
   0.62979753  -0.04627148   0.50308872   1.12500931  -0.09599606   0.28287819   1.27894597  -8.43273341
   0.62979753  -0.03470361   0.50813647   1.12917741  -0.07122185   0.28707250   1.27859470  -8.43943903
   0.62979753  -0.02313574   0.51161723   1.13266833  -0.04716427   0.29013526   1.27878444  -8.44035631
   0.62979753  -0.01156787   0.51322477   1.13501374  -0.02324697   0.29171656   1.27920523  -8.43825165
   0.62979753   0.00000000   0.51369386   1.13585621  -0.00000000   0.29222345   1.27939501  -8.43713362
   0.62979753   0.01156787   0.51322477   1.13501374   0.02324697   0.29171656   1.27920523  -8.43825149
   0.62979753   0.02313574   0.51161723   1.13266833   0.04716427   0.29013526   1.27878444  -8.44035624
   0.62979753   0.03470361   0.50813647   1.12917741   0.07122185   0.28707250   1.27859470  -8.43943902
   0.62979753   0.04627148   0.50308872   1.12500931   0.09599606   0.28287819   1.27894597  -8.43273343
   0.62979753   0.05783935   0.50038330   1.12089350   0.12553813   0.28067226   1.27925597  -8.42702859
   0.70667261  -0.06844481   0.47492588   1.06838867  -0.15714215   0.24907568   1.26075981  -8.25255375
   0.70667261  -0.05475584   0.47641017   1.07677670  -0.12227458   0.24983006   1.26512449  -8.25697469
   0.70667261  -0.04106688   0.47979325   1.08924624  -0.09005520   0.25150980   1.27589348  -8.26305334
   0.70667261  -0.02737792   0.48290164   1.10156855  -0.05959440   0.25292726   1.28816384  -8.26637042
   0.70667261  -0.01368896   0.48465713   1.11038885  -0.02955640   0.25360250   1.29754908  -8.26720568
   0.70667261   0.00000000   0.48520302   1.11360540  -0.00000000   0.25378564   1.30106826  -8.26728416
   0.70667261   0.01368896   0.48465713   1.11038885   0.02955640   0.25360250   1.29754908  -8.26720561
   0.70667261   0.02737792   0.48290164   1.10156855   0.05959440   0.25292726   1.28816384  -8.26637032
   0.70667261   0.04106688   0.47979325   1.08924624   0.09005520   0.25150980   1.27589348  -8.26305329
   0.70667261   0.05475584   0.47641017   1.07677670   0.12227458   0.24983006   1.26512449  -8.25697473
   0.70667261   0.06844481   0.47492588   1.06838867   0.15714215   0.24907568   1.26075981  -8.25255383
   0.79036543  -0.08164271   0.50206319   0.86624020  -0.12159047   0.29343706   0.97911669  -8.17438109
   0.79036543  -0.06531416   0.50157117   0.87422043  -0.09957143   0.29206419   0.98630850  -8.17661282
   0.79036543  -0.04898562   0.50213504   0.89016503  -0.07358785   0.29006870   1.00453519  -8.18050422
   0.79036543  -0.03265708   0.50459859   0.90788015  -0.04883238   0.28916610   1.02594956  -8.18555195
   0.79036543  -0.01632854   0.50685458   0.92123350  -0.02440962   0.28868480   1.04261225  -8.18949579
   0.79036543   0.00000000   0.50770292   0.92617247  -0.00000000   0.28848348   1.04889546  -8.19095380
   0.79036543   0.01632854   0.50685458   0.92123350   0.02440962   0.28868480   1.04261225  -8.18949571
   0.79036543   0.03265708   0.50459859   0.90788015   0.04883238   0.28916610   1.02594956  -8.18555191
   0.79036543   0.04898562   0.50213504   0.89016503   0.07358785   0.29006870   1.00453519  -8.18050420
   0.79036543   0.06531416   0.50157117   0.87422043   0.09957143   0.29206419   0.98630850  -8.17661285
   0.79036543   0.08164271   0.50206319   0.86624020   0.12159047   0.29343706   0.97911669  -8.17438113
   0.88547632  -0.09280572   0.53091045   0.66861717  -0.06230718   0.39203317   0.67116885  -8.21643593
   0.88547632  -0.07424457   0.52948693   0.67353904  -0.05365303   0.38989110   0.67648960  -8.21707376
   0.88547632  -0.05568343   0.52846693   0.68690410  -0.03962340   0.38642863   0.69148958  -8.21934007
   0.88547632  -0.03712229   0.53029652   0.70422515  -0.02633332   0.38444550   0.71127794  -8.22577986
   0.88547632  -0.01856114   0.53276947   0.71835843  -0.01327031   0.38340110   0.72773710  -8.23237374
   0.88547632   0.00000000   0.53381634   0.72373226  -0.00000000   0.38301942   0.73408715  -8.23505859
   0.88547632   0.01856114   0.53276947   0.71835843   0.01327031   0.38340110   0.72773710  -8.23237378
   0.88547632   0.03712229   0.53029652   0.70422515   0.02633332   0.38444550   0.71127794  -8.22577993
   0.88547632   0.05568343   0.52846693   0.68690410   0.03962340   0.38642863   0.69148958  -8.21934015
   0.88547632   0.07424457   0.52948693   0.67353904   0.05365303   0.38989110   0.67648960  -8.21707376
   0.88547632   0.09280572   0.53091045   0.66861717   0.06230718   0.39203317   0.67116885  -8.21643586
   1.00000000  -0.10000000   0.53900629   0.59282330  -0.01861839   0.51109668   0.51777966  -5.83563166
   1.00000000  -0.08000000   0.53780168   0.59664290  -0.01533053   0.51022705   0.52089808  -8.34067241
   1.00000000  -0.06000000   0.53689526   0.60810762  -0.01105239   0.50875027   0.53120888  -8.34535232
   1.00000000  -0.04000000   0.53857229   0.62429061  -0.00730454   0.50780687   0.54670259  -8.35533262
   1.00000000  -0.02000000   0.54103416   0.63811592  -0.00369476   0.50727775   0.56037169  -8.36525171
   1.00000000   0.00000000   0.54211718   0.64346516  -0.00000000   0.50708488   0.56573945  -8.36931091
   1.00000000   0.02000000   0.54103416   0.63811592   0.00369476   0.50727775   0.56037169  -8.36525177
   1.00000000   0.04000000   0.53857229   0.62429061   0.00730454   0.50780687   0.54670259  -8.35533275
   1.00000000   0.06000000   0.53689526   0.60810762   0.01105239   0.50875027   0.53120888  -8.34535246
   1.00000000   0.08000000   0.53780168   0.59664290   0.01533053   0.51022705   0.52089808  -8.34067245
   1.00000000   0.10000000   0.53900629   0.59282330   0.01861839   0.51109668   0.51777966  -5.80306259
