 VARIABLES = "X" "Y" "RHO" "U" "V" "pres"
 Zone I=          41 , J=          99 , F=POINT
  0.02884615 -0.36214726  1.06523334  0.05038033  0.00428140  0.92781499
  0.02884615 -0.34403990  1.03084867  0.07119111  0.02040560  0.75075908
  0.02884615 -0.32593254  1.00635061  0.11478253  0.01720446  0.72286042
  0.02884615 -0.30782517  1.05065741  0.12690545 -0.01179183  0.77344618
  0.02884615 -0.28971781  1.08266666  0.10474697 -0.03234592  0.81011974
  0.02884615 -0.27161045  1.04433546  0.09243815 -0.00924317  0.76705458
  0.02884615 -0.25350308  0.99605283  0.12243000  0.02388609  0.71257318
  0.02884615 -0.23539572  1.00770201  0.16064962  0.02187277  0.72589600
  0.02884615 -0.21728836  1.04865020  0.17656755 -0.01610762  0.77232631
  0.02884615 -0.19918100  1.07166609  0.15663707 -0.04253771  0.79866909
  0.02884615 -0.18107363  1.07245823  0.12992272 -0.03305323  0.79974652
  0.02884615 -0.16296627  1.03950752  0.14143040 -0.00577113  0.76250774
  0.02884615 -0.14485891  0.99037000  0.18482575  0.03084980  0.70713695
  0.02884615 -0.12675154  0.94794013  0.25695329  0.06027244  0.65999173
  0.02884615 -0.10864418  0.92245649  0.32110131  0.06478427  0.63176101
  0.02884615 -0.09053682  0.92113663  0.36718266  0.05651272  0.63013630
  0.02884615 -0.07242945  0.92862257  0.39995540  0.04064688  0.63812170
  0.02884615 -0.05432209  0.93906983  0.41876004  0.02524440  0.64940281
  0.02884615 -0.03621473  0.94802587  0.42999430  0.01391228  0.65911813
  0.02884615 -0.01810736  0.95322824  0.43514699  0.00580062  0.66478276
  0.02884615  0.00000000  0.95509379  0.43677911  0.00000096  0.66681799
  0.02884615  0.01810736  0.95322814  0.43514702 -0.00579876  0.66478265
  0.02884615  0.03621473  0.94802558  0.42999420 -0.01391048  0.65911782
  0.02884615  0.05432209  0.93906940  0.41875993 -0.02524286  0.64940234
  0.02884615  0.07242945  0.92862197  0.39995472 -0.04064564  0.63812106
  0.02884615  0.09053682  0.92113550  0.36718217 -0.05651143  0.63013507
  0.02884615  0.10864418  0.92245657  0.32109898 -0.06478353  0.63176113
  0.02884615  0.12675154  0.94794033  0.25695040 -0.06027059  0.65999193
  0.02884615  0.14485891  0.99037133  0.18482115 -0.03084622  0.70713847
  0.02884615  0.16296627  1.03951080  0.14142529  0.00577457  0.76251145
  0.02884615  0.18107363  1.07246074  0.12991995  0.03305670  0.79974938
  0.02884615  0.19918100  1.07166680  0.15663568  0.04254041  0.79866991
  0.02884615  0.21728836  1.04864798  0.17656764  0.01610882  0.77232382
  0.02884615  0.23539572  1.00769852  0.16064913 -0.02187424  0.72589210
  0.02884615  0.25350308  0.99605143  0.12242541 -0.02388619  0.71257165
  0.02884615  0.27161045  1.04433781  0.09243158  0.00924728  0.76705735
  0.02884615  0.28971781  1.08267126  0.10474449  0.03235205  0.81012500
  0.02884615  0.30782517  1.05065737  0.12690825  0.01179341  0.77344610
  0.02884615  0.32593254  1.00634461  0.11478246 -0.01720574  0.72285351
  0.02884615  0.34403990  1.03084724  0.07118096 -0.02040606  0.75075727
  0.02884615  0.36214726  1.06523719  0.05036699 -0.00427986  0.92781898
  0.03846154 -0.36099471  1.07019468  0.05810437  0.00677167  0.93193870
  0.03846154 -0.34294498  1.01982512  0.07820489  0.03931265  0.73625791
  0.03846154 -0.32489524  0.99189135  0.11593622  0.03102597  0.70462804
  0.03846154 -0.30684550  1.06675348  0.12077760 -0.01422901  0.78965088
  0.03846154 -0.28879577  1.10767906  0.10683787 -0.03778077  0.83655424
  0.03846154 -0.27074603  1.04672020  0.10305473  0.00012625  0.76771828
  0.03846154 -0.25269630  0.98644099  0.12899844  0.04190811  0.69952004
  0.03846154 -0.23464656  1.00848512  0.16121630  0.03352088  0.72453316
  0.03846154 -0.21659683  1.06230569  0.17717343 -0.01864491  0.78559958
  0.03846154 -0.19854709  1.09128639  0.15783174 -0.05437901  0.81882588
  0.03846154 -0.18049736  1.08517962  0.13278002 -0.03516306  0.81219501
  0.03846154 -0.16244762  1.02128672  0.15616005  0.01452294  0.74063865
  0.03846154 -0.14439788  0.94617580  0.21304445  0.06674408  0.65712788
  0.03846154 -0.12634815  0.90610580  0.28548919  0.09768014  0.61381039
  0.03846154 -0.10829841  0.89291530  0.34174208  0.09068399  0.59971066
  0.03846154 -0.09024868  0.90478064  0.37839609  0.07272408  0.61254815
  0.03846154 -0.07219894  0.92193307  0.40394333  0.05026539  0.63112668
  0.03846154 -0.05414921  0.93818346  0.41860642  0.03056914  0.64882683
  0.03846154 -0.03609947  0.95084878  0.42756876  0.01677983  0.66268433
  0.03846154 -0.01804974  0.95783740  0.43177908  0.00698646  0.67036080
  0.03846154  0.00000000  0.96031108  0.43313305  0.00000091  0.67308258
  0.03846154  0.01804974  0.95783726  0.43177909 -0.00698474  0.67036064
  0.03846154  0.03609947  0.95084838  0.42756866 -0.01677820  0.66268389
  0.03846154  0.05414921  0.93818291  0.41860633 -0.03056783  0.64882622
  0.03846154  0.07219894  0.92193217  0.40394280 -0.05026441  0.63112571
  0.03846154  0.09024868  0.90477920  0.37839573 -0.07272328  0.61254660
  0.03846154  0.10829841  0.89291447  0.34174021 -0.09068428  0.59970978
  0.03846154  0.12634815  0.90610434  0.28548721 -0.09767935  0.61380879
  0.03846154  0.14439788  0.94617695  0.21303960 -0.06674100  0.65712923
  0.03846154  0.16244762  1.02129103  0.15615371 -0.01451925  0.74064352
  0.03846154  0.18049736  1.08518362  0.13277659  0.03516778  0.81219966
  0.03846154  0.19854709  1.09128803  0.15783055  0.05438292  0.81882784
  0.03846154  0.21659683  1.06230327  0.17717344  0.01864697  0.78559692
  0.03846154  0.23464656  1.00848084  0.16121538 -0.03352315  0.72452844
  0.03846154  0.25269630  0.98643824  0.12899447 -0.04190937  0.69951703
  0.03846154  0.27074603  1.04672334  0.10304880 -0.00012221  0.76772207
  0.03846154  0.28879577  1.10768538  0.10683525  0.03778883  0.83656149
  0.03846154  0.30684550  1.06675417  0.12077876  0.01423231  0.78965159
  0.03846154  0.32489524  0.99188242  0.11593555 -0.03102961  0.70461790
  0.03846154  0.34294498  1.01982169  0.07819550 -0.03931697  0.73625377
  0.03846154  0.36099471  1.07020103  0.05809162 -0.00676966  0.93194524
  0.04807692 -0.35952008  1.08029618  0.07086848  0.01061243  0.94361853
  0.04807692 -0.34154407  1.02316979  0.08252624  0.05445023  0.74176020
  0.04807692 -0.32356807  0.99393752  0.10932680  0.03736721  0.70866612
  0.04807692 -0.30559207  1.08470965  0.11332029 -0.01722310  0.81203111
  0.04807692 -0.28761606  1.12691424  0.11341560 -0.03869809  0.86063255
  0.04807692 -0.26964006  1.04603220  0.11595173  0.00909273  0.76906363
  0.04807692 -0.25166406  0.97259127  0.13485211  0.05789987  0.68595654
  0.04807692 -0.23368805  0.99909417  0.16617095  0.04530078  0.71590204
  0.04807692 -0.21571205  1.06989863  0.18047089 -0.02304716  0.79614659
  0.04807692 -0.19773604  1.10916928  0.15318419 -0.06865805  0.84089319
  0.04807692 -0.17976004  1.08659989  0.13473276 -0.03447833  0.81526090
  0.04807692 -0.16178404  0.98906210  0.17819271  0.03852174  0.70615527
  0.04807692 -0.14380803  0.90005214  0.24220800  0.09926429  0.60744048
  0.04807692 -0.12583203  0.86962869  0.30302754  0.12768733  0.57471681
  0.04807692 -0.10785602  0.86743497  0.34571545  0.11232627  0.57239101
  0.04807692 -0.08988002  0.88866937  0.37366522  0.08830637  0.59509949
  0.04807692 -0.07190402  0.91283358  0.39451382  0.06098910  0.62107904
  0.04807692 -0.05392801  0.93387043  0.40740043  0.03728367  0.64388923
  0.04807692 -0.03595201  0.95001050  0.41581450  0.02066995  0.66149378
  0.04807692 -0.01797600  0.95883672  0.41996854  0.00866947  0.67116971
  0.04807692  0.00000000  0.96197726  0.42134266  0.00000093  0.67462057
  0.04807692  0.01797600  0.95883656  0.41996854 -0.00866770  0.67116953
  0.04807692  0.03595201  0.95001003  0.41581438 -0.02066827  0.66149327
  0.04807692  0.05392801  0.93386981  0.40740033 -0.03728237  0.64388855
  0.04807692  0.07190402  0.91283248  0.39451332 -0.06098818  0.62107786
  0.04807692  0.08988002  0.88866764  0.37366483 -0.08830571  0.59509765
  0.04807692  0.10785602  0.86743364  0.34571396 -0.11232704  0.57238960
  0.04807692  0.12583203  0.86962598  0.30302657 -0.12768692  0.57471389
  0.04807692  0.14380803  0.90005320  0.24220283 -0.09926185  0.60744177
  0.04807692  0.16178404  0.98906704  0.17818534 -0.03851840  0.70616084
  0.04807692  0.17976004  1.08660434  0.13472946  0.03448459  0.81526606
  0.04807692  0.19773604  1.10917190  0.15318340  0.06866260  0.84089631
  0.04807692  0.21571205  1.06989700  0.18047046  0.02304905  0.79614486
  0.04807692  0.23368805  0.99908882  0.16616940 -0.04530430  0.71589610
  0.04807692  0.25166406  0.97258779  0.13484864 -0.05790241  0.68595267
  0.04807692  0.26964006  1.04603609  0.11594731 -0.00908860  0.76906824
  0.04807692  0.28761606  1.12692183  0.11341288  0.03870678  0.86064123
  0.04807692  0.30559207  1.08471198  0.11331877  0.01722672  0.81203361
  0.04807692  0.32356807  0.99392749  0.10932553 -0.03737169  0.70865470
  0.04807692  0.34154407  1.02316458  0.08251952 -0.05445716  0.74175391
  0.04807692  0.35952008  1.08030186  0.07086005 -0.01061075  0.94362424
  0.05769231 -0.35772875  1.09195707  0.07785544  0.01429116  0.95564759
  0.05769231 -0.33984231  1.03422672  0.07604283  0.05973104  0.75334348
  0.05769231 -0.32195587  0.99651758  0.09648590  0.04082361  0.71071806
  0.05769231 -0.30406944  1.08010195  0.11277576 -0.01507983  0.80595940
  0.05769231 -0.28618300  1.12194336  0.12289134 -0.03096902  0.85396757
  0.05769231 -0.26829656  1.03222357  0.12865985  0.02138524  0.75283736
  0.05769231 -0.25041012  0.94890915  0.14376059  0.07373810  0.65902974
  0.05769231 -0.23252369  0.98405709  0.16523242  0.05579944  0.69864850
  0.05769231 -0.21463725  1.08049756  0.16663325 -0.03104402  0.80828262
  0.05769231 -0.19675081  1.12317628  0.13985226 -0.08032721  0.85718325
  0.05769231 -0.17886437  1.06612847  0.14327994 -0.02043207  0.79253285
  0.05769231 -0.16097794  0.93951382  0.20295251  0.07538053  0.65222772
  0.05769231 -0.14309150  0.85571452  0.26280369  0.13374712  0.56053571
  0.05769231 -0.12520506  0.84464325  0.31099630  0.15178185  0.54888903
  0.05769231 -0.10731862  0.85493828  0.34494854  0.12632924  0.55980542
  0.05769231 -0.08943219  0.88344310  0.36842205  0.09743872  0.59011217
  0.05769231 -0.07154575  0.91189303  0.38699521  0.06728004  0.62065112
  0.05769231 -0.05365931  0.93552803  0.39915149  0.04144116  0.64630191
  0.05769231 -0.03577287  0.95361579  0.40744319  0.02326703  0.66607091
  0.05769231 -0.01788644  0.96352515  0.41169030  0.00985826  0.67696482
  0.05769231  0.00000000  0.96708848  0.41312419  0.00000102  0.68089225
  0.05769231  0.01788644  0.96352502  0.41169033 -0.00985634  0.67696468
  0.05769231  0.03577287  0.95361531  0.40744310 -0.02326521  0.66607039
  0.05769231  0.05365931  0.93552742  0.39915144 -0.04143975  0.64630125
  0.05769231  0.07154575  0.91189186  0.38699477 -0.06727904  0.62064986
  0.05769231  0.08943219  0.88344130  0.36842166 -0.09743807  0.59011026
  0.05769231  0.10731862  0.85493658  0.34494726 -0.12633012  0.55980363
  0.05769231  0.12520506  0.84463953  0.31099591 -0.15178191  0.54888511
  0.05769231  0.14309150  0.85571500  0.26279863 -0.13374624  0.56053639
  0.05769231  0.16097794  0.93951759  0.20294547 -0.07537773  0.65223193
  0.05769231  0.17886437  1.06613207  0.14327777  0.02044072  0.79253702
  0.05769231  0.19675081  1.12318171  0.13985071  0.08033206  0.85718971
  0.05769231  0.21463725  1.08049872  0.16663078  0.03104583  0.80828425
  0.05769231  0.23252369  0.98405036  0.16523034 -0.05580271  0.69864105
  0.05769231  0.25041012  0.94890358  0.14375914 -0.07374183  0.65902359
  0.05769231  0.26829656  1.03222667  0.12865826 -0.02138174  0.75284107
  0.05769231  0.28618300  1.12195317  0.12288739  0.03097690  0.85397881
  0.05769231  0.30406944  1.08010592  0.11277187  0.01508213  0.80596383
  0.05769231  0.32195587  0.99650785  0.09648346 -0.04082817  0.71070690
  0.05769231  0.33984231  1.03422232  0.07603627 -0.05973759  0.75333798
  0.05769231  0.35772875  1.09196188  0.07784991 -0.01428976  0.95565232
  0.06730769 -0.35562726  1.09332059  0.07902353  0.01681553  0.95730088
  0.06730769 -0.33784590  1.02752796  0.07368121  0.06254714  0.74652542
  0.06730769 -0.32006453  0.97877622  0.09247140  0.04682661  0.69150132
  0.06730769 -0.30228317  1.06316850  0.11650521 -0.00738941  0.78703364
  0.06730769 -0.28450181  1.11344951  0.13564668 -0.02299472  0.84443216
  0.06730769 -0.26672044  1.02142286  0.14481891  0.03348400  0.74111364
  0.06730769 -0.24893908  0.93623438  0.15484909  0.08581140  0.64518866
  0.06730769 -0.23115772  0.99623083  0.15740383  0.05658017  0.71288757
  0.06730769 -0.21337636  1.11332506  0.14854085 -0.04062412  0.84646093
  0.06730769 -0.19559499  1.13079000  0.14514834 -0.07777709  0.86658003
  0.06730769 -0.17781363  1.03675077  0.18129661  0.00730641  0.75965784
  0.06730769 -0.16003227  0.90472221  0.24578357  0.11010092  0.61403704
  0.06730769 -0.14225090  0.83459773  0.29122985  0.15916988  0.53786005
  0.06730769 -0.12446954  0.83515699  0.32491663  0.17084709  0.53859500
  0.06730769 -0.10668818  0.85061986  0.35129063  0.14069162  0.55502087
  0.06730769 -0.08890681  0.88292991  0.37204006  0.10910105  0.58941485
  0.06730769 -0.07112545  0.91441305  0.38983049  0.07610888  0.62326648
  0.06730769 -0.05334409  0.94062223  0.40219611  0.04747473  0.65177947
  0.06730769 -0.03556273  0.96097141  0.41094036  0.02701033  0.67407963
  0.06730769 -0.01778136  0.97221705  0.41553126  0.01156055  0.68648073
  0.06730769  0.00000000  0.97631671  0.41710430  0.00000089  0.69101388
  0.06730769  0.01778136  0.97221692  0.41553126 -0.01155893  0.68648058
  0.06730769  0.03556273  0.96097091  0.41094024 -0.02700883  0.67407908
  0.06730769  0.05334409  0.94062162  0.40219604 -0.04747366  0.65177880
  0.06730769  0.07112545  0.91441181  0.38983006 -0.07610825  0.62326515
  0.06730769  0.08890681  0.88292796  0.37203962 -0.10910081  0.58941278
  0.06730769  0.10668818  0.85061795  0.35128937 -0.14069296  0.55501886
  0.06730769  0.12446954  0.83515293  0.32491639 -0.17084758  0.53859075
  0.06730769  0.14225090  0.83459764  0.29122535 -0.15917048  0.53786012
  0.06730769  0.16003227  0.90472390  0.24577854 -0.11009857  0.61403893
  0.06730769  0.17781363  1.03675443  0.18129489 -0.00729640  0.75966208
  0.06730769  0.19559499  1.13079998  0.14514392  0.07778127  0.86659181
  0.06730769  0.21337636  1.11332822  0.14853620  0.04062534  0.84646493
  0.06730769  0.23115772  0.99622307  0.15740179 -0.05658169  0.71287887
  0.06730769  0.24893908  0.93622676  0.15484980 -0.08581453  0.64518027
  0.06730769  0.26672044  1.02142468  0.14481967 -0.03348202  0.74111596
  0.06730769  0.28450181  1.11345888  0.13564355  0.02300136  0.84444286
  0.06730769  0.30228317  1.06317108  0.11650022  0.00739192  0.78703648
  0.06730769  0.32006453  0.97876724  0.09246669 -0.04683015  0.69149106
  0.06730769  0.33784590  1.02752609  0.07367364 -0.06255270  0.74652278
  0.06730769  0.35562726  1.09332818  0.07901812 -0.01681396  0.95730854
  0.07692308 -0.35322328  1.08691290  0.09066334  0.02234747  0.95082763
  0.07692308 -0.33556211  1.01649559  0.09120955  0.06571729  0.73488816
  0.07692308 -0.31790095  0.97168883  0.10091033  0.05104017  0.68405110
  0.07692308 -0.30023978  1.06664138  0.11437234 -0.00014569  0.79152235
  0.07692308 -0.28257862  1.11728465  0.14958938 -0.01127747  0.84959494
  0.07692308 -0.26491746  1.02557269  0.16826555  0.04413436  0.74637901
  0.07692308 -0.24725629  0.95226450  0.16294495  0.08595542  0.66348421
  0.07692308 -0.22959513  1.03439406  0.14554768  0.04729388  0.75668671
  0.07692308 -0.21193397  1.14200597  0.14857914 -0.04132186  0.88002995
  0.07692308 -0.19427280  1.10947818  0.18430553 -0.05453507  0.84305420
  0.07692308 -0.17661164  0.99002154  0.23628574  0.04747709  0.70779563
  0.07692308 -0.15895047  0.87167628  0.28449606  0.14409139  0.57887175
  0.07692308 -0.14128931  0.81911626  0.31261083  0.17858605  0.52243279
  0.07692308 -0.12362815  0.82894660  0.33574514  0.18269726  0.53272238
  0.07692308 -0.10596698  0.84703922  0.35621476  0.14859966  0.55179700
  0.07692308 -0.08830582  0.88040513  0.37402414  0.11576483  0.58720713
  0.07692308 -0.07064466  0.91235226  0.39007957  0.08157955  0.62149389
  0.07692308 -0.05298349  0.93917591  0.40174198  0.05160928  0.65064608
  0.07692308 -0.03532233  0.96046339  0.41030601  0.02981007  0.67395637
  0.07692308 -0.01766116  0.97234856  0.41489651  0.01290164  0.68705758
  0.07692308  0.00000000  0.97675937  0.41649862  0.00000090  0.69193336
  0.07692308  0.01766116  0.97234835  0.41489643 -0.01290000  0.68705735
  0.07692308  0.03532233  0.96046276  0.41030577 -0.02980854  0.67395567
  0.07692308  0.05298349  0.93917519  0.40174178 -0.05160821  0.65064530
  0.07692308  0.07064466  0.91235086  0.39007901 -0.08157897  0.62149238
  0.07692308  0.08830582  0.88040297  0.37402347 -0.11576475  0.58720484
  0.07692308  0.10596698  0.84703702  0.35621343 -0.14860111  0.55179469
  0.07692308  0.12362815  0.82894242  0.33574457 -0.18269811  0.53271803
  0.07692308  0.14128931  0.81911509  0.31260684 -0.17858819  0.52243168
  0.07692308  0.15895047  0.87167440  0.28449409 -0.14408991  0.57886972
  0.07692308  0.17661164  0.99002659  0.23628329 -0.04746832  0.70780145
  0.07692308  0.19427280  1.10949200  0.18429866  0.05453772  0.84307027
  0.07692308  0.21193397  1.14200839  0.14857458  0.04132317  0.88003303
  0.07692308  0.22959513  1.03438640  0.14554466 -0.04729350  0.75667799
  0.07692308  0.24725629  0.95225866  0.16294413 -0.08595807  0.66347776
  0.07692308  0.26491746  1.02557450  0.16826687 -0.04413540  0.74638123
  0.07692308  0.28257862  1.11728889  0.14958960  0.01128185  0.84959967
  0.07692308  0.30023978  1.06664067  0.11436588  0.00014888  0.79152130
  0.07692308  0.31790095  0.97168070  0.10090382 -0.05104297  0.68404185
  0.07692308  0.33556211  1.01649420  0.09120320 -0.06572260  0.73488630
  0.07692308  0.35322328  1.08692170  0.09065746 -0.02234557  0.95083671
  0.08653846 -0.35052557  1.09587406  0.11102684  0.03100419  0.96061769
  0.08653846 -0.33299929  1.03035130  0.10314141  0.06526203  0.75084145
  0.08653846 -0.31547301  0.98753318  0.09770477  0.04376390  0.70207771
  0.08653846 -0.29794673  1.07282576  0.10970238  0.00507682  0.79906301
  0.08653846 -0.28042046  1.11065321  0.16134334  0.00690602  0.84226245
  0.08653846 -0.26289418  1.02451527  0.18242043  0.05025724  0.74466981
  0.08653846 -0.24536790  0.97472517  0.15573956  0.07349247  0.68822407
  0.08653846 -0.22784162  1.05238420  0.13377175  0.03945633  0.77633965
  0.08653846 -0.21031534  1.11335123  0.16503942 -0.02258563  0.84622749
  0.08653846 -0.19278906  1.04632291  0.22926935 -0.01746931  0.77058932
  0.08653846 -0.17526279  0.93984560  0.27662375  0.07963895  0.65156827
  0.08653846 -0.15773651  0.84554144  0.30018909  0.16057281  0.55049465
  0.08653846 -0.14021023  0.80275729  0.31121481  0.18827595  0.50520550
  0.08653846 -0.12268395  0.81473606  0.32565974  0.19225753  0.51771515
  0.08653846 -0.10515767  0.83273226  0.34192119  0.15751055  0.53660883
  0.08653846 -0.08763139  0.86717599  0.35853586  0.12452647  0.57296850
  0.08653846 -0.07010511  0.90035460  0.37436859  0.08888691  0.60839794
  0.08653846 -0.05257884  0.92874103  0.38637250  0.05709379  0.63912161
  0.08653846 -0.03505256  0.95170914  0.39544611  0.03346917  0.66418294
  0.08653846 -0.01752628  0.96465864  0.40039962  0.01463814  0.67841619
  0.08653846  0.00000000  0.96954678  0.40216198  0.00000101  0.68380592
  0.08653846  0.01752628  0.96465843  0.40039958 -0.01463627  0.67841596
  0.08653846  0.03505256  0.95170846  0.39544589 -0.03346738  0.66418219
  0.08653846  0.05257884  0.92874026  0.38637233 -0.05709248  0.63912077
  0.08653846  0.07010511  0.90035309  0.37436805 -0.08888611  0.60839633
  0.08653846  0.08763139  0.86717364  0.35853513 -0.12452619  0.57296601
  0.08653846  0.10515767  0.83272984  0.34191993 -0.15751180  0.53660631
  0.08653846  0.12268395  0.81473188  0.32565884 -0.19225822  0.51771084
  0.08653846  0.14021023  0.80275562  0.31121171 -0.18827803  0.50520385
  0.08653846  0.15773651  0.84553846  0.30018964 -0.16057137  0.55049150
  0.08653846  0.17526279  0.93985153  0.27662033 -0.07963177  0.65157500
  0.08653846  0.19278906  1.04633451  0.22926273  0.01747254  0.77060246
  0.08653846  0.21031534  1.11335108  0.16503660  0.02258954  0.84622745
  0.08653846  0.22784162  1.05237981  0.13376641 -0.03945449  0.77633457
  0.08653846  0.24536790  0.97472431  0.15573583 -0.07349327  0.68822306
  0.08653846  0.26289418  1.02451764  0.18242244 -0.05025774  0.74467240
  0.08653846  0.28042046  1.11065353  0.16134627 -0.00690333  0.84226264
  0.08653846  0.29794673  1.07282293  0.10969580 -0.00507362  0.79905957
  0.08653846  0.31547301  0.98752535  0.09769859 -0.04376441  0.70206879
  0.08653846  0.33299929  1.03034979  0.10313766 -0.06526645  0.75083953
  0.08653846  0.35052557  1.09588117  0.11102385 -0.03100313  0.96062505
  0.09615385 -0.34754399  1.10967538  0.11150830  0.03448264  0.97557243
  0.09615385 -0.33016679  1.05538794  0.08927588  0.05647613  0.77924350
  0.09615385 -0.31278959  0.99496246  0.08258213  0.03625589  0.71076749
  0.09615385 -0.29541239  1.03843123  0.11444493  0.01864541  0.76066994
  0.09615385 -0.27803519  1.07786022  0.16973727  0.02569404  0.80520061
  0.09615385 -0.26065799  1.02017424  0.18008400  0.04364753  0.74007968
  0.09615385 -0.24328079  0.98475015  0.14006510  0.05297013  0.70023063
  0.09615385 -0.22590359  1.03435717  0.13301889  0.04128847  0.75625023
  0.09615385 -0.20852639  1.05339589  0.19519957  0.00831869  0.77802664
  0.09615385 -0.19114919  0.98542591  0.26506880  0.01888050  0.70228122
  0.09615385 -0.17377199  0.90770608  0.29611475  0.10369305  0.61684013
  0.09615385 -0.15639479  0.83529942  0.30288038  0.17028420  0.54015589
  0.09615385 -0.13901760  0.80206122  0.30683871  0.19314062  0.50509556
  0.09615385 -0.12164040  0.81719535  0.31861275  0.19730939  0.52083052
  0.09615385 -0.10426320  0.83601520  0.33357113  0.16264596  0.54059424
  0.09615385 -0.08688600  0.87190018  0.35002021  0.13064009  0.57853764
  0.09615385 -0.06950880  0.90614984  0.36582918  0.09456328  0.61520291
  0.09615385 -0.05213160  0.93598123  0.37817037  0.06180370  0.64760107
  0.09615385 -0.03475440  0.96053546  0.38765059  0.03683468  0.67449845
  0.09615385 -0.01737720  0.97454326  0.39293865  0.01631066  0.68996424
  0.09615385  0.00000000  0.97992826  0.39484952  0.00000072  0.69592987
  0.09615385  0.01737720  0.97454309  0.39293866 -0.01630940  0.68996405
  0.09615385  0.03475440  0.96053480  0.38765044 -0.03683351  0.67449772
  0.09615385  0.05213160  0.93598051  0.37817027 -0.06180302  0.64760027
  0.09615385  0.06950880  0.90614832  0.36582870 -0.09456316  0.61520127
  0.09615385  0.08688600  0.87189775  0.35001946 -0.13064053  0.57853506
  0.09615385  0.10426320  0.83601264  0.33356988 -0.16264787  0.54059155
  0.09615385  0.12164040  0.81719134  0.31861180 -0.19731097  0.52082637
  0.09615385  0.13901760  0.80205887  0.30683607 -0.19314366  0.50509316
  0.09615385  0.15639479  0.83529656  0.30288120 -0.17028388  0.54015293
  0.09615385  0.17377199  0.90771193  0.29611195 -0.10368801  0.61684663
  0.09615385  0.19114919  0.98543314  0.26506447 -0.01887679  0.70228909
  0.09615385  0.20852639  1.05339399  0.19519690 -0.00831385  0.77802446
  0.09615385  0.22590359  1.03435724  0.13301099 -0.04128791  0.75625016
  0.09615385  0.24328079  0.98475315  0.14005986 -0.05296903  0.70023385
  0.09615385  0.26065799  1.02017645  0.18008596 -0.04364483  0.74008197
  0.09615385  0.27803519  1.07785986  0.16973965 -0.02569325  0.80520005
  0.09615385  0.29541239  1.03842701  0.11443891 -0.01864520  0.76066506
  0.09615385  0.31278959  0.99495674  0.08257535 -0.03625407  0.71076087
  0.09615385  0.33016679  1.05538923  0.08927266 -0.05647730  0.77924462
  0.09615385  0.34754399  1.10968059  0.11150939 -0.03448289  0.97557777
  0.10576923 -0.34428941  1.10992299  0.10496100  0.03564208  0.97588253
  0.10576923 -0.32707494  1.06167244  0.08387713  0.05105739  0.78613994
  0.10576923 -0.30986047  0.98072183  0.09199598  0.04763912  0.69489614
  0.10576923 -0.29264600  0.99307221  0.14210972  0.04470361  0.70947399
  0.10576923 -0.27543153  1.06089936  0.18431627  0.03745971  0.78602262
  0.10576923 -0.25821706  1.04559133  0.18070003  0.02779566  0.76906778
  0.10576923 -0.24100259  1.00409238  0.15091277  0.03916768  0.72191365
  0.10576923 -0.22378811  1.01418975  0.16537686  0.06235365  0.73311631
  0.10576923 -0.20657364  1.01215535  0.23943264  0.04838929  0.73107219
  0.10576923 -0.18935917  0.96673168  0.30190094  0.04747128  0.68082311
  0.10576923 -0.17214470  0.91747697  0.31921510  0.11503207  0.62687809
  0.10576923 -0.15493023  0.85365266  0.31391230  0.17301255  0.55912313
  0.10576923 -0.13771576  0.82017956  0.31136899  0.19762407  0.52358843
  0.10576923 -0.12050129  0.83356212  0.31970305  0.20491679  0.53765333
  0.10576923 -0.10328682  0.85058578  0.33307194  0.17062419  0.55570210
  0.10576923 -0.08607235  0.88716221  0.34897869  0.13905069  0.59464751
  0.10576923 -0.06885788  0.92204068  0.36453499  0.10165143  0.63224337
  0.10576923 -0.05164341  0.95316158  0.37687510  0.06732663  0.66626898
  0.10576923 -0.03442894  0.97922701  0.38648990  0.04062389  0.69500798
  0.10576923 -0.01721447  0.99420055  0.39187775  0.01816150  0.71164966
  0.10576923  0.00000000  1.00006286  0.39384921  0.00000101  0.71818688
  0.10576923  0.01721447  0.99420029  0.39187772 -0.01815968  0.71164937
  0.10576923  0.03442894  0.97922622  0.38648970 -0.04062219  0.69500711
  0.10576923  0.05164341  0.95316072  0.37687495 -0.06732547  0.66626805
  0.10576923  0.06885788  0.92203899  0.36453446 -0.10165090  0.63224155
  0.10576923  0.08607235  0.88715955  0.34897788 -0.13905073  0.59464466
  0.10576923  0.10328682  0.85058299  0.33307069 -0.17062569  0.55569916
  0.10576923  0.12050129  0.83355817  0.31970209 -0.20491819  0.53764921
  0.10576923  0.13771576  0.82017696  0.31136675 -0.19762617  0.52358576
  0.10576923  0.15493023  0.85365060  0.31391311 -0.17301143  0.55912100
  0.10576923  0.17214470  0.91748186  0.31921357 -0.11502740  0.62688349
  0.10576923  0.18935917  0.96673556  0.30189874 -0.04746712  0.68082725
  0.10576923  0.20657364  1.01215340  0.23943013 -0.04838552  0.73106998
  0.10576923  0.22378811  1.01419272  0.16536771 -0.06235463  0.73311954
  0.10576923  0.24100259  1.00409604  0.15090700 -0.03916350  0.72191761
  0.10576923  0.25821706  1.04559290  0.18070178 -0.02778909  0.76906942
  0.10576923  0.27543153  1.06089903  0.18431725 -0.03746037  0.78602214
  0.10576923  0.29264600  0.99306617  0.14210407 -0.04470715  0.70946714
  0.10576923  0.30986047  0.98071794  0.09198826 -0.04763650  0.69489153
  0.10576923  0.32707494  1.06167694  0.08387209 -0.05105433  0.78614451
  0.10576923  0.34428941  1.10992849  0.10496130 -0.03564211  0.97588812
  0.11538462 -0.34077370  1.09978243  0.12269683  0.04534561  0.96520062
  0.11538462 -0.32373502  1.05124578  0.11685600  0.05411913  0.77470447
  0.11538462 -0.30669633  0.96721748  0.12646267  0.07161331  0.68010260
  0.11538462 -0.28965765  0.97972549  0.16423508  0.06991528  0.69460829
  0.11538462 -0.27261896  1.07608178  0.19064164  0.03918585  0.80414087
  0.11538462 -0.25558028  1.08323658  0.18188172  0.01743231  0.81252283
  0.11538462 -0.23854159  1.01557080  0.17575513  0.04203080  0.73529455
  0.11538462 -0.22150291  0.99141700  0.20742999  0.08811892  0.70838754
  0.11538462 -0.20446422  0.98430627  0.27253073  0.08039431  0.70062558
  0.11538462 -0.18742554  0.95665336  0.31892292  0.06930005  0.67009485
  0.11538462 -0.17038685  0.92467949  0.32645165  0.12378526  0.63503549
  0.11538462 -0.15334817  0.86594085  0.31511833  0.17294841  0.57246127
  0.11538462 -0.13630948  0.83087678  0.30811037  0.19733464  0.53505474
  0.11538462 -0.11927080  0.84039155  0.31248607  0.20668951  0.54516931
  0.11538462 -0.10223211  0.85292376  0.32265670  0.17355309  0.55857350
  0.11538462 -0.08519343  0.88735584  0.33659940  0.14369762  0.59529195
  0.11538462 -0.06815474  0.92037347  0.35084174  0.10624097  0.63090120
  0.11538462 -0.05111606  0.95094581  0.36254187  0.07143304  0.66432400
  0.11538462 -0.03407737  0.97724987  0.37197782  0.04369993  0.69330963
  0.11538462 -0.01703869  0.99248791  0.37729547  0.01972272  0.71023726
  0.11538462  0.00000000  0.99860462  0.37928653  0.00000077  0.71705450
  0.11538462  0.01703869  0.99248760  0.37729536 -0.01972138  0.71023690
  0.11538462  0.03407737  0.97724898  0.37197750 -0.04369866  0.69330866
  0.11538462  0.05111606  0.95094484  0.36254156 -0.07143233  0.66432293
  0.11538462  0.06815474  0.92037166  0.35084102 -0.10624091  0.63089924
  0.11538462  0.08519343  0.88735300  0.33659837 -0.14369812  0.59528891
  0.11538462  0.10223211  0.85292078  0.32265524 -0.17355494  0.55857035
  0.11538462  0.11927080  0.84038770  0.31248490 -0.20669153  0.54516527
  0.11538462  0.13630948  0.83087407  0.30810835 -0.19733654  0.53505192
  0.11538462  0.15334817  0.86593925  0.31511898 -0.17294725  0.57245961
  0.11538462  0.17038685  0.92468372  0.32645093 -0.12378184  0.63504013
  0.11538462  0.18742554  0.95665467  0.31892154 -0.06929646  0.67009619
  0.11538462  0.20446422  0.98430376  0.27252847 -0.08039202  0.70062278
  0.11538462  0.22150291  0.99142134  0.20742142 -0.08812104  0.70839231
  0.11538462  0.23854159  1.01557439  0.17575038 -0.04202434  0.73529837
  0.11538462  0.25558028  1.08323906  0.18188227 -0.01742299  0.81252558
  0.11538462  0.27261896  1.07608274  0.19064049 -0.03918685  0.80414197
  0.11538462  0.28965765  0.97971815  0.16423043 -0.06992176  0.69460000
  0.11538462  0.30669633  0.96721203  0.12645772 -0.07161210  0.68009629
  0.11538462  0.32373502  1.05125068  0.11685189 -0.05411369  0.77470953