 VARIABLES = "X" "Y" "RHO" "U" "V" "pres" "mach"      "log(rms)"
 Zone I=           9 , J=          51 , F=POINT
   0.00000000  -0.20000000   1.00327787   0.29194238   0.00644875   0.71755784   0.29190064  -9.68640693
   0.00000000  -0.15000000   1.00214219   0.29505458   0.00440660   0.71642153   0.29499882 -13.53983776
   0.00000000  -0.10000000   0.99952930   0.30259696   0.00298177   0.71380767   0.30265940 -13.54539237
   0.00000000  -0.05000000   0.99710610   0.31019653   0.00159698   0.71138283   0.31038953 -13.48399991
   0.00000000   0.00000000   0.99616010   0.31331092   0.00000000   0.71043555   0.31355727 -13.40935145
   0.00000000   0.05000000   0.99710610   0.31019653  -0.00159698   0.71138283   0.31038953 -13.47583403
   0.00000000   0.10000000   0.99952930   0.30259696  -0.00298177   0.71380767   0.30265940 -13.54696485
   0.00000000   0.15000000   1.00214219   0.29505458  -0.00440660   0.71642153   0.29499882 -13.54688221
   0.00000000   0.20000000   1.00327787   0.29194238  -0.00644875   0.71755784   0.29190064  -9.78809453
   0.04448011  -0.19803458   1.00476506   0.29407423   0.02505491   0.71906790   0.29514892 -13.59516051
   0.04448011  -0.14852593   1.00298312   0.29774798   0.01674836   0.71727461   0.29816881 -13.57603231
   0.04448011  -0.09901729   0.99928095   0.30535327   0.01085030   0.71355239   0.30564768 -13.55119322
   0.04448011  -0.04950864   0.99633702   0.31289979   0.00559224   0.71059257   0.31321152 -13.55757843
   0.04448011   0.00000000   0.99531332   0.31599404   0.00000000   0.70956168   0.31631640 -13.56298644
   0.04448011   0.04950864   0.99633702   0.31289979  -0.00559224   0.71059257   0.31321152 -13.57046816
   0.04448011   0.09901729   0.99928095   0.30535327  -0.01085030   0.71355239   0.30564768 -13.57338033
   0.04448011   0.14852593   1.00298312   0.29774798  -0.01674836   0.71727461   0.29816881 -13.57749909
   0.04448011   0.19803458   1.00476506   0.29407423  -0.02505491   0.71906790   0.29514892 -13.57614755
   0.08795926  -0.19257331   1.00374064   0.30219181   0.04919321   0.71811563   0.30624432 -13.60817648
   0.08795926  -0.14442999   1.00146394   0.30689561   0.03380396   0.71580805   0.30885130 -13.59098618
   0.08795926  -0.09628666   0.99679868   0.31433963   0.02162224   0.71108589   0.31539152 -13.57919321
   0.08795926  -0.04814333   0.99321392   0.32142743   0.01085172   0.70745965   0.32212417 -13.57720709
   0.08795926   0.00000000   0.99201772   0.32433546   0.00000000   0.70624800   0.32492358 -13.58929647
   0.08795926   0.04814333   0.99321392   0.32142743  -0.01085172   0.70745965   0.32212417 -13.59034048
   0.08795926   0.09628666   0.99679868   0.31433963  -0.02162224   0.71108589   0.31539152 -13.59121552
   0.08795926   0.14442999   1.00146394   0.30689561  -0.03380396   0.71580805   0.30885130 -13.59248958
   0.08795926   0.19257331   1.00374064   0.30219181  -0.04919321   0.71811563   0.30624432 -13.61171898
   0.12971676  -0.18428285   0.99836789   0.31758041   0.07189492   0.71283563   0.32597581 -13.52958180
   0.12971676  -0.13821214   0.99619427   0.32323329   0.05163962   0.71061668   0.32779695 -13.52315038
   0.12971676  -0.09214143   0.99157420   0.33010376   0.03336694   0.70590731   0.33250436 -13.53910550
   0.12971676  -0.04607071   0.98786790   0.33616072   0.01660617   0.70213207   0.33752906 -13.55118370
   0.12971676   0.00000000   0.98660804   0.33862174   0.00000000   0.70084726   0.33966749 -13.55461220
   0.12971676   0.04607071   0.98786790   0.33616072  -0.01660617   0.70213207   0.33752906 -13.52642542
   0.12971676   0.09214143   0.99157420   0.33010376  -0.03336694   0.70590731   0.33250436 -13.51422134
   0.12971676   0.13821214   0.99619427   0.32323329  -0.05163962   0.71061668   0.32779695 -13.54754859
   0.12971676   0.18428285   0.99836789   0.31758041  -0.07189492   0.71283563   0.32597581 -13.56791759
   0.16929455  -0.17428479   0.98934673   0.33926260   0.09227159   0.70393735   0.35255530 -13.43915356
   0.16929455  -0.13071360   0.98759884   0.34580863   0.06809273   0.70213308   0.35356051 -13.45621174
   0.16929455  -0.08714240   0.98367299   0.35206933   0.04445554   0.69809216   0.35623910 -13.47256659
   0.16929455  -0.04357120   0.98031379   0.35689878   0.02210408   0.69464099   0.35920996 -13.48512177
   0.16929455   0.00000000   0.97913255   0.35878624   0.00000000   0.69342648   0.36050744 -13.48519319
   0.16929455   0.04357120   0.98031379   0.35689878  -0.02210408   0.69464099   0.35920996 -13.46653368
   0.16929455   0.08714240   0.98367299   0.35206933  -0.04445554   0.69809216   0.35623910 -13.46384648
   0.16929455   0.13071360   0.98759884   0.34580863  -0.06809273   0.70213308   0.35356051 -13.46162467
   0.16929455   0.17428479   0.98934673   0.33926260  -0.09227159   0.70393735   0.35255530 -13.44627079
   0.20646201  -0.16350663   0.97742874   0.36639503   0.10992658   0.69220563   0.38445944 -13.38321343
   0.20646201  -0.12262997   0.97620417   0.37373317   0.08229329   0.69091274   0.38477781 -13.40455008
   0.20646201  -0.08175331   0.97320819   0.37951890   0.05402874   0.68777596   0.38567789 -13.43169366
   0.20646201  -0.04087666   0.97041097   0.38323317   0.02686457   0.68486574   0.38675111 -13.43765913
   0.20646201   0.00000000   0.96938517   0.38457116   0.00000000   0.68379941   0.38724262 -13.41657757
   0.20646201   0.04087666   0.97041097   0.38323317  -0.02686457   0.68486574   0.38675111 -13.40903259
   0.20646201   0.08175331   0.97320819   0.37951890  -0.05402874   0.68777596   0.38567789 -13.40771159
   0.20646201   0.12262997   0.97620417   0.37373317  -0.08229329   0.69091274   0.38477781 -13.38175946
   0.20646201   0.16350663   0.97742874   0.36639503  -0.10992658   0.69220563   0.38445944 -13.36405193
   0.24123088  -0.15275365   0.96256848   0.39881455   0.12417699   0.67763866   0.42104171 -13.31973169
   0.24123088  -0.11456524   0.96194873   0.40659897   0.09379329   0.67693507   0.42077537 -13.33280601
   0.24123088  -0.07637683   0.96006075   0.41189503   0.06170238   0.67487347   0.42017206 -13.35916907
   0.24123088  -0.03818841   0.95797298   0.41461563   0.03064630   0.67264642   0.41963875 -13.35172386
   0.24123088   0.00000000   0.95715344   0.41546442   0.00000000   0.67177739   0.41944242 -13.34248130
   0.24123088   0.03818841   0.95797298   0.41461563  -0.03064630   0.67264642   0.41963875 -13.32949458
   0.24123088   0.07637683   0.96006075   0.41189503  -0.06170238   0.67487347   0.42017206 -13.30676211
   0.24123088   0.11456524   0.96194873   0.40659897  -0.09379329   0.67693507   0.42077537 -13.31224557
   0.24123088   0.15275365   0.96256848   0.39881455  -0.12417699   0.67763866   0.42104171 -13.31868305
   0.27351843  -0.14263848   0.94461199   0.43636002   0.13469638   0.66013510   0.46200917 -13.27414764
   0.27351843  -0.10697886   0.94468517   0.44411405   0.10233661   0.66010249   0.46120491 -13.26828202
   0.27351843  -0.07131924   0.94410455   0.44871688   0.06728759   0.65930132   0.45926396 -13.25279950
   0.27351843  -0.03565962   0.94289675   0.45044366   0.03333421   0.65791562   0.45734718 -13.24037552
   0.27351843   0.00000000   0.94234275   0.45082900   0.00000000   0.65729848   0.45656710 -13.27441142
   0.27351843   0.03565962   0.94289675   0.45044366  -0.03333421   0.65791562   0.45734718 -13.26841713
   0.27351843   0.07131924   0.94410455   0.44871688  -0.06728759   0.65930132   0.45926396 -13.24530768
   0.27351843   0.10697886   0.94468517   0.44411405  -0.10233661   0.66010249   0.46120491 -13.26490602
   0.27351843   0.14263848   0.94461199   0.43636002  -0.13469638   0.66013510   0.46200917 -13.27213578
   0.30375778  -0.13343109   0.92345025   0.47877721   0.14105661   0.63964945   0.50717945 -13.22880648
   0.30375778  -0.10007332   0.92430412   0.48594428   0.10771367   0.64036645   0.50583965 -13.21260857
   0.30375778  -0.06671555   0.92523621   0.48952890   0.07068558   0.64101116   0.50261966 -13.19225420
   0.30375778  -0.03335777   0.92509132   0.49015980   0.03488147   0.64063231   0.49944085 -13.17883356
   0.30375778   0.00000000   0.92486821   0.49006904   0.00000000   0.64032574   0.49814223 -13.18345762
   0.30375778   0.03335777   0.92509132   0.49015980  -0.03488147   0.64063231   0.49944085 -13.20981051
   0.30375778   0.06671555   0.92523621   0.48952890  -0.07068558   0.64101116   0.50261966 -13.20872828
   0.30375778   0.10007332   0.92430412   0.48594428  -0.10771367   0.64036645   0.50583965 -13.20753984
   0.30375778   0.13343109   0.92345025   0.47877721  -0.14105661   0.63964945   0.50717945 -13.20320002
   0.33204215  -0.12535210   0.89905143   0.52565406   0.14282480   0.61622652   0.55640307 -13.16128698
   0.33204215  -0.09401407   0.90075836   0.53168308   0.10973224   0.61775342   0.55450325 -13.16989076
   0.33204215  -0.06267605   0.90338482   0.53388586   0.07184427   0.62000002   0.54998887 -13.15613799
   0.33204215  -0.03133802   0.90447597   0.53327253   0.03528068   0.62077965   0.54558745 -13.14259254
   0.33204215   0.00000000   0.90464760   0.53267272   0.00000000   0.62083958   0.54380061 -13.13169988
   0.33204215   0.03133802   0.90447597   0.53327253  -0.03528068   0.62077965   0.54558745 -13.15825620
   0.33204215   0.06267605   0.90338482   0.53388586  -0.07184427   0.62000002   0.54998887 -13.15751159
   0.33204215   0.09401407   0.90075836   0.53168308  -0.10973224   0.61775342   0.55450325 -13.13734176
   0.33204215   0.12535210   0.89905143   0.52565406  -0.14282480   0.61622652   0.55640307 -13.13466658
   0.35882270  -0.11841532   0.87143046   0.57642752   0.13959215   0.58997466   0.60954092 -13.09083371
   0.35882270  -0.08881149   0.87404215   0.58084559   0.10822707   0.59234713   0.60704050 -13.10547227
   0.35882270  -0.05920766   0.87851034   0.58132819   0.07074460   0.59631009   0.60116458 -13.08312906
   0.35882270  -0.02960383   0.88099394   0.57931792   0.03454893   0.59837852   0.59551533 -13.08373249
   0.35882270   0.00000000   0.88162103   0.57817065   0.00000000   0.59885647   0.59324157 -13.08607657
   0.35882270   0.02960383   0.88099394   0.57931792  -0.03454893   0.59837852   0.59551533 -13.07506804
   0.35882270   0.05920766   0.87851034   0.58132819  -0.07074460   0.59631009   0.60116458 -13.08509245
   0.35882270   0.08881149   0.87404215   0.58084559  -0.10822707   0.59234713   0.60704050 -13.10495455
   0.35882270   0.11841532   0.87143046   0.57642752  -0.13959215   0.58997466   0.60954092 -13.09774666
   0.38414346  -0.11267302   0.84068408   0.63039484   0.13097229   0.56109812   0.66643268 -13.03340432
   0.38414346  -0.08450476   0.84422795   0.63287292   0.10304229   0.56432263   0.66328490 -13.02895799
   0.38414346  -0.05633651   0.85064596   0.63137357   0.06737318   0.57006766   0.65594953 -13.00524255
   0.38414346  -0.02816825   0.85466158   0.62784112   0.03270701   0.57353199   0.64898054 -13.00394879
   0.38414346   0.00000000   0.85580308   0.62611367   0.00000000   0.57447580   0.64619915 -13.00453689
   0.38414346   0.02816825   0.85466158   0.62784112  -0.03270701   0.57353199   0.64898054 -12.99523693
   0.38414346   0.05633651   0.85064596   0.63137357  -0.06737318   0.57006766   0.65594953 -13.00874805
   0.38414346   0.08450476   0.84422795   0.63287292  -0.10304229   0.56432263   0.66328490 -13.04409420
   0.38414346   0.11267302   0.84068408   0.63039484  -0.13097229   0.56109812   0.66643268 -13.04702175
   0.40840367  -0.10805527   0.80703243   0.68677502   0.11665459   0.52993914   0.72692436 -12.97276941
   0.40840367  -0.08104145   0.81151256   0.68718694   0.09403563   0.53399252   0.72308683 -12.95800112
   0.40840367  -0.05402763   0.81994780   0.68356572   0.06170776   0.54153235   0.71418677 -12.93690389
   0.40840367  -0.02701382   0.82561412   0.67844086   0.02976710   0.54646994   0.70580117 -12.91965079
   0.40840367   0.00000000   0.82732533   0.67611575  -0.00000000   0.54792109   0.70247813 -12.90889800
   0.40840367   0.02701382   0.82561412   0.67844086  -0.02976710   0.54646994   0.70580117 -12.91960956
   0.40840367   0.05402763   0.81994780   0.68356572  -0.06170776   0.54153235   0.71418677 -12.93996153
   0.40840367   0.08104145   0.81151256   0.68718694  -0.09403563   0.53399252   0.72308683 -12.96106710
   0.40840367   0.10805527   0.80703243   0.68677502  -0.11665459   0.52993914   0.72692436 -12.97537362
   0.43185635  -0.10451350   0.77069349   0.74472828   0.09639354   0.49685463   0.79087622 -12.87181889
   0.43185635  -0.07838513   0.77609451   0.74319441   0.08109483   0.50168676   0.78632051 -12.85522301
   0.43185635  -0.05225675   0.78657362   0.73746933   0.05372693   0.51097837   0.77576456 -12.83639427
   0.43185635  -0.02612838   0.79397984   0.73075820   0.02573683   0.51742621   0.76586017 -12.82075777
   0.43185635   0.00000000   0.79630796   0.72784060  -0.00000000   0.51941456   0.76195602 -12.80557186
   0.43185635   0.02612838   0.79397984   0.73075820  -0.02573683   0.51742621   0.76586017 -12.81390624
   0.43185635   0.05225675   0.78657362   0.73746933  -0.05372693   0.51097837   0.77576456 -12.83854914
   0.43185635   0.07838513   0.77609451   0.74319441  -0.08109483   0.50168676   0.78632051 -12.85633254
   0.43185635   0.10451350   0.77069349   0.74472828  -0.09639354   0.49685463   0.79087622 -12.86852072
   0.45469089  -0.10201350   0.73203836   0.80324460   0.07019561   0.46234793   0.85799436 -12.73191538
   0.45469089  -0.07651012   0.73831697   0.80016824   0.06419550   0.46787459   0.85272167 -12.71469556
   0.45469089  -0.05100675   0.75080867   0.79255059   0.04343307   0.47880362   0.84046515 -12.69479608
   0.45469089  -0.02550337   0.76000078   0.78435834   0.02062866   0.48674436   0.82896034 -12.68481523
   0.45469089   0.00000000   0.76297980   0.78088367  -0.00000000   0.48928272   0.82443936 -12.67807952
   0.45469089   0.02550337   0.76000078   0.78435834  -0.02062866   0.48674436   0.82896034 -12.67823118
   0.45469089   0.05100675   0.75080867   0.79255059  -0.04343307   0.47880362   0.84046515 -12.69150912
   0.45469089   0.07651012   0.73831697   0.80016824  -0.06419550   0.46787459   0.85272167 -12.71523263
   0.45469089   0.10201350   0.73203836   0.80324460  -0.07019561   0.46234793   0.85799436 -12.72865820
   0.47704363  -0.10051923   0.69169522   0.86103694   0.03833191   0.42713640   0.92761922 -12.55121704
   0.47704363  -0.07538942   0.69877698   0.85711513   0.04347161   0.43323923   0.92168089 -12.53841164
   0.47704363  -0.05025961   0.71318023   0.84803722   0.03090333   0.44561387   0.90776656 -12.51814664
   0.47704363  -0.02512981   0.72414590   0.83858808   0.01448458   0.45496414   0.89463120 -12.50170932
   0.47704363   0.00000000   0.72779008   0.83462857  -0.00000000   0.45804259   0.88947182 -12.49783333
   0.47704363   0.02512981   0.72414590   0.83858808  -0.01448458   0.45496414   0.89463120 -12.50449138
   0.47704363   0.05025961   0.71318023   0.84803722  -0.03090333   0.44561387   0.90776656 -12.51617452
   0.47704363   0.07538942   0.69877698   0.85711513  -0.04347161   0.43323923   0.92168089 -12.53803896
   0.47704363   0.10051923   0.69169522   0.86103694  -0.03833191   0.42713640   0.92761922 -12.55050181
   0.49893386  -0.10000218   0.65067874   0.91647573   0.00165154   0.39221489   0.99846814 -12.32813299
   0.49893386  -0.07500164   0.65844558   0.91265420   0.01938342   0.39873828   0.99199205 -12.31946957
   0.49893386  -0.05000109   0.67456336   0.90277978   0.01639991   0.41227977   0.97660639 -12.30446612
   0.49893386  -0.02500055   0.68721122   0.89243382   0.00743517   0.42287953   0.96190481 -12.29461704
   0.49893386   0.00000000   0.69150813   0.88810374   0.00000000   0.42646119   0.95611280 -12.28984754
   0.49893386   0.02500055   0.68721122   0.89243382  -0.00743517   0.42287953   0.96190481 -12.29715196
   0.49893386   0.05000109   0.67456336   0.90277978  -0.01639991   0.41227977   0.97660639 -12.30682058
   0.49893386   0.07500164   0.65844558   0.91265420  -0.01938342   0.39873828   0.99199205 -12.31900863
   0.49893386   0.10000218   0.65067874   0.91647573  -0.00165154   0.39221489   0.99846814 -12.32742110
   0.52015752  -0.10040058   0.61045805   0.96769850  -0.03824262   0.35885712   1.06851923 -12.08835143
   0.52015752  -0.07530044   0.61871871   0.96506845  -0.00714408   0.36559446   1.06173709 -12.08603095
   0.52015752  -0.05020029   0.63621574   0.95525742   0.00049904   0.37992221   1.04526440 -12.07974838
   0.52015752  -0.02510015   0.65036155   0.94450257  -0.00022406   0.39153661   1.02919370 -12.07560815
   0.52015752   0.00000000   0.65527100   0.93995620   0.00000000   0.39556060   1.02281357 -12.07388811
   0.52015752   0.02510015   0.65036155   0.94450257   0.00022406   0.39153661   1.02919370 -12.07535396
   0.52015752   0.05020029   0.63621574   0.95525742  -0.00049904   0.37992221   1.04526440 -12.08027275
   0.52015752   0.07530044   0.61871871   0.96506845   0.00714408   0.36559446   1.06173709 -12.08815134
   0.52015752   0.10040058   0.61045805   0.96769850   0.03824262   0.35885712   1.06851923 -12.08938006
   0.54023934  -0.10159042   0.57273401   1.01308669  -0.07898288   0.32838559   1.13530443 -11.86865609
   0.54023934  -0.07619282   0.58123359   1.01266418  -0.03464722   0.33510122   1.12853570 -11.87054625
   0.54023934  -0.05079521   0.59964431   1.00385733  -0.01587653   0.34976568   1.11155588 -11.87217123
   0.54023934  -0.02539761   0.61500855   0.99326887  -0.00801475   0.36210043   1.09447265 -11.87360056
   0.54023934   0.00000000   0.62046164   0.98869132   0.00000000   0.36648636   1.08760050 -11.87446435
   0.54023934   0.02539761   0.61500855   0.99326887   0.00801475   0.36210043   1.09447265 -11.87393761
   0.54023934   0.05079521   0.59964431   1.00385733   0.01587653   0.34976568   1.11155588 -11.87262827
   0.54023934   0.07619282   0.58123359   1.01266418   0.03464722   0.33510122   1.12853570 -11.87120159
   0.54023934   0.10159042   0.57273401   1.01308669   0.07898288   0.32838559   1.13530443 -11.86914746
   0.55858428  -0.10334994   0.53900096   1.05179415  -0.11787214   0.30182764   1.19655673 -11.70936895
   0.55858428  -0.07751246   0.54746007   1.05430245  -0.06144008   0.30829686   1.19016201 -11.71326813
   0.55858428  -0.05167497   0.56623927   1.04737222  -0.03169490   0.32283751   1.17340054 -11.71943892
   0.55858428  -0.02583749   0.58245540   1.03755063  -0.01540089   0.33555828   1.15582968 -11.72526304
   0.55858428   0.00000000   0.58835146   1.03314328   0.00000000   0.34020761   1.14862558 -11.72766631
   0.55858428   0.02583749   0.58245540   1.03755063   0.01540089   0.33555828   1.15582968 -11.72630756
   0.55858428   0.05167497   0.56623927   1.04737222   0.03169490   0.32283751   1.17340054 -11.72088701
   0.55858428   0.07751246   0.54746007   1.05430245   0.06144008   0.30829686   1.19016201 -11.71327151
   0.55858428   0.10334994   0.53900096   1.05179415   0.11787214   0.30182764   1.19655673 -11.70820806
   0.57475111  -0.10541427   0.50996403   1.08391637  -0.15317169   0.27952221   1.25091388 -11.68673249
   0.57475111  -0.07906070   0.51812319   1.08968260  -0.08649437   0.28556225   1.24523250 -11.69004538
   0.57475111  -0.05270714   0.53673296   1.08532288  -0.04636922   0.29957185   1.22946270 -11.69419939
   0.57475111  -0.02635357   0.55340475   1.07684242  -0.02207098   0.31234926   1.21206455 -11.69786189
   0.57475111   0.00000000   0.55962592   1.07281386   0.00000000   0.31715709   1.20475480 -11.69933948
   0.57475111   0.02635357   0.55340475   1.07684242   0.02207098   0.31234926   1.21206455 -11.69887366
   0.57475111   0.05270714   0.53673296   1.08532288   0.04636922   0.29957185   1.22946270 -11.69549339
   0.57475111   0.07906070   0.51812319   1.08968260   0.08649437   0.28556225   1.24523250 -11.69003807
   0.57475111   0.10541427   0.50996403   1.08391637   0.15317169   0.27952221   1.25091388 -11.68578493
   0.58899922  -0.10761672   0.48537638   1.11012712  -0.18436432   0.26106364   1.29812201 -12.04112351
   0.58899922  -0.08071254   0.49305938   1.11912452  -0.10955504   0.26657170   1.29337903 -12.07842039
   0.58899922  -0.05380836   0.51109424   1.11778112  -0.05987407   0.27977666   1.27924509 -12.15241561
   0.58899922  -0.02690418   0.52787762   1.11114147  -0.02803705   0.29234315   1.26270994 -12.23069804
   0.58899922   0.00000000   0.53430913   1.10769784   0.00000000   0.29721274   1.25556576 -12.26705953
   0.58899922   0.02690418   0.52787762   1.11114147   0.02803705   0.29234315   1.26270994 -12.23148159
   0.58899922   0.05380836   0.51109424   1.11778112   0.05987407   0.27977666   1.27924509 -12.15364639
   0.58899922   0.08071254   0.49305938   1.11912452   0.10955504   0.26657170   1.29337903 -12.07852082
   0.58899922   0.10761672   0.48537638   1.11012712   0.18436432   0.26106364   1.29812201 -12.04187252
   0.60197643  -0.10991798   0.46478717   1.13142191  -0.21147639   0.24591791   1.33866194 -11.85893460
   0.60197643  -0.08243849   0.47193332   1.14346477  -0.13012401   0.25088472   1.33495501 -11.89960845
   0.60197643  -0.05495899   0.48916762   1.14530566  -0.07197700   0.26316853   1.32287452 -11.97935331
   0.60197643  -0.02747950   0.50577424   1.14082780  -0.03327502   0.27532105   1.30777808 -12.06072363
   0.60197643   0.00000000   0.51229271   1.13812150   0.00000000   0.28015658   1.30105520 -12.09727447
   0.60197643   0.02747950   0.50577424   1.14082780   0.03327502   0.27532105   1.30777808 -12.06085126
   0.60197643   0.05495899   0.48916762   1.14530566   0.07197700   0.26316853   1.32287452 -11.98066286
   0.60197643   0.08243849   0.47193332   1.14346477   0.13012401   0.25088472   1.33495501 -11.90059366
   0.60197643   0.10991798   0.46478717   1.13142191   0.21147639   0.24591791   1.33866194 -11.86016037
   0.61301851  -0.11208590   0.44749848   1.14891923  -0.23486341   0.23343642   1.37352649 -11.30153019
   0.61301851  -0.08406442   0.45408248   1.16369535  -0.14847993   0.23787722   1.37089250 -11.30205773
   0.61301851  -0.05604295   0.47036302   1.16875854  -0.08285005   0.24917918   1.36116590 -11.29366204
   0.61301851  -0.02802147   0.48655180   1.16666431  -0.03788244   0.26075689   1.34801036 -11.28021350
   0.61301851   0.00000000   0.49304404   1.16481254   0.00000000   0.26547342   1.34194744 -11.27350176
   0.61301851   0.02802147   0.48655180   1.16666431   0.03788244   0.26075689   1.34801036 -11.28036285
   0.61301851   0.05604295   0.47036302   1.16875854   0.08285005   0.24917918   1.36116590 -11.29407770
   0.61301851   0.08406442   0.45408248   1.16369535   0.14847993   0.23787722   1.37089250 -11.30242204
   0.61301851   0.11208590   0.44749848   1.14891923   0.23486341   0.23343642   1.37352649 -11.30177214
   0.62338024  -0.11428673   0.43267931   1.16362223  -0.25526863   0.22291705   1.40399034 -11.33928274
   0.62338024  -0.08571504   0.43871331   1.18081924  -0.16502718   0.22686854   1.40240103 -11.38404770
   0.62338024  -0.05714336   0.45398360   1.18902222  -0.09279720   0.23719368   1.39515801 -11.57963118
   0.62338024  -0.02857168   0.46960369   1.18941270  -0.04206008   0.24810565   1.38428213 -11.66562493
   0.62338024   0.00000000   0.47598749   1.18848566   0.00000000   0.25264397   1.37905996 -11.59834628
   0.62338024   0.02857168   0.46960369   1.18941270   0.04206008   0.24810565   1.38428213 -11.66568959
   0.62338024   0.05714336   0.45398360   1.18902222   0.09279720   0.23719368   1.39515801 -11.57976682
   0.62338024   0.08571504   0.43871331   1.18081924   0.16502718   0.22686854   1.40240103 -11.38413814
   0.62338024   0.11428673   0.43267931   1.16362223   0.25526863   0.22291705   1.40399034 -11.33935979
   0.63257225  -0.11636658   0.41971093   1.17622891  -0.27325596   0.21385003   1.43103355 -11.01753649
   0.63257225  -0.08727494   0.42524270   1.19555653  -0.17999217   0.21736941   1.43041156 -11.07544274
   0.63257225  -0.05818329   0.43952800   1.20672166  -0.10200548   0.22677718   1.42562837 -11.30519964
   0.63257225  -0.02909165   0.45449637   1.20957805  -0.04596154   0.23698464   1.41719840 -11.42790929
   0.63257225   0.00000000   0.46071122   1.20959414   0.00000000   0.24130370   1.41292961 -11.37614063
   0.63257225   0.02909165   0.45449637   1.20957805   0.04596154   0.23698464   1.41719840 -11.42775562
   0.63257225   0.05818329   0.43952800   1.20672166   0.10200548   0.22677718   1.42562837 -11.30528609
   0.63257225   0.08727494   0.42524270   1.19555653   0.17999217   0.21736941   1.43041156 -11.07551404
   0.63257225   0.11636658   0.41971093   1.17622891   0.27325596   0.21385003   1.43103355 -11.01754691
   0.64151939  -0.11849871   0.40824908   1.18723533  -0.28916707   0.20594032   1.45531001 -10.52330601
   0.64151939  -0.08887403   0.41333396   1.20844677  -0.19347085   0.20908475   1.45556949 -10.53093398
   0.64151939  -0.05924936   0.42669698   1.22234750  -0.11049399   0.21765656   1.45313790 -10.54313768
   0.64151939  -0.02962468   0.44098552   1.22755991  -0.04962108   0.22716457   1.44717453 -10.55417781
   0.64151939   0.00000000   0.44699592   1.22849350   0.00000000   0.23124520   1.44390223 -10.55849043
   0.64151939   0.02962468   0.44098552   1.22755991   0.04962108   0.22716457   1.44717453 -10.55420550
   0.64151939   0.05924936   0.42669698   1.22234750   0.11049399   0.21765656   1.45313790 -10.54315241
   0.64151939   0.08887403   0.41333396   1.20844677   0.19347085   0.20908475   1.45556949 -10.53093162
   0.64151939   0.11849871   0.40824908   1.18723533   0.28916707   0.20594032   1.45531001 -10.52331779
   0.64943563  -0.12046810   0.39791512   1.19725204  -0.30337887   0.19888898   1.47772361 -10.65166201
   0.64943563  -0.09035107   0.40260827   1.22009747  -0.20575733   0.20171177   1.47875632 -10.73989345
   0.64943563  -0.06023405   0.41512460   1.23646629  -0.11843114   0.20953248   1.47847958 -10.79820261
   0.64943563  -0.03011702   0.42873337   1.24385072  -0.05312010   0.21836509   1.47487691 -10.68308851
   0.64943563   0.00000000   0.43451896   1.24563849   0.00000000   0.22219975   1.47258370 -10.59516741
   0.64943563   0.03011702   0.42873337   1.24385072   0.05312010   0.21836509   1.47487691 -10.68306123
   0.64943563   0.06023405   0.41512460   1.23646629   0.11843114   0.20953248   1.47847958 -10.79811373
   0.64943563   0.09035107   0.40260827   1.22009747   0.20575733   0.20171177   1.47875632 -10.73979179
   0.64943563   0.12046810   0.39791512   1.19725204   0.30337887   0.19888898   1.47772361 -10.65165548
   0.65735186  -0.12251030   0.38813489   1.20698498  -0.31642274   0.19228094   1.49953234 -10.35491625
   0.65735186  -0.09188273   0.39249424   1.23124503  -0.21721776   0.19483093   1.50120288 -10.45634785
   0.65735186  -0.06125515   0.40427198   1.24976685  -0.12601654   0.20199579   1.50277204 -10.55131300
   0.65735186  -0.03062758   0.41726319   1.25905808  -0.05655081   0.21021264   1.50126441 -10.48005114
   0.65735186   0.00000000   0.42283602   1.26159892   0.00000000   0.21381462   1.49985814 -10.41236028
   0.65735186   0.03062758   0.41726319   1.25905808   0.05655081   0.21021264   1.50126441 -10.48003054
   0.65735186   0.06125515   0.40427198   1.24976685   0.12601654   0.20199579   1.50277204 -10.55123410
   0.65735186   0.09188273   0.39249424   1.23124503   0.21721776   0.19483093   1.50120288 -10.45625880
   0.65735186   0.12251030   0.38813489   1.20698498   0.31642274   0.19228094   1.49953234 -10.35490639
   0.66477453  -0.12448703   0.37864574   1.21690701  -0.32858840   0.18595955   1.52138475  -9.76657414
   0.66477453  -0.09336527   0.38272413   1.24249370  -0.22777028   0.18827517   1.52364033  -9.77834848
   0.66477453  -0.06224351   0.39386045   1.26294328  -0.13310608   0.19485942   1.52689706  -9.80389207
   0.66477453  -0.03112176   0.40628723   1.27392263  -0.05984302   0.20250635   1.52731046  -9.83436264
   0.66477453   0.00000000   0.41165608   1.27712779   0.00000000   0.20588464   1.52672274  -9.84863702
   0.66477453   0.03112176   0.40628723   1.27392263   0.05984302   0.20250635   1.52731046  -9.83436779
   0.66477453   0.06224351   0.39386045   1.26294328   0.13310608   0.19485942   1.52689706  -9.80389037
   0.66477453   0.09336527   0.38272413   1.24249370   0.22777028   0.18827517   1.52364033  -9.77834969
   0.66477453   0.12448703   0.37864574   1.21690701   0.32858840   0.18595955   1.52138475  -9.76657340
   0.67194910  -0.12645070   0.36986871   1.22588238  -0.33963895   0.18021818   1.54138978  -9.78729274
   0.67194910  -0.09483802   0.37361483   1.25274400  -0.23777842   0.18227505   1.54442977  -9.84993252
   0.67194910  -0.06322535   0.38394852   1.27540759  -0.13995023   0.18819183   1.54992878 -10.02862623
   0.67194910  -0.03161267   0.39560429   1.28840601  -0.06305154   0.19514719   1.55287797  -9.99935781
   0.67194910   0.00000000   0.40067249   1.29241047  -0.00000000   0.19824265   1.55336814  -9.85133200
   0.67194910   0.03161267   0.39560429   1.28840601   0.06305154   0.19514719   1.55287797  -9.99936071
   0.67194910   0.06322535   0.38394852   1.27540759   0.13995023   0.18819183   1.54992878 -10.02862218
   0.67194910   0.09483802   0.37361483   1.25274400   0.23777842   0.18227505   1.54442977  -9.84992295
   0.67194910   0.12645070   0.36986871   1.22588238   0.33963895   0.18021818   1.54138978  -9.78728839
   0.67912366  -0.12846240   0.36361083   1.23057464  -0.34874325   0.17605575   1.55465052  -9.45879340
   0.67912366  -0.09634680   0.36686546   1.25868142  -0.24696621   0.17778549   1.55881983  -9.53426026
   0.67912366  -0.06423120   0.37595926   1.28425362  -0.14657268   0.18283188   1.56761300  -9.75068646
   0.67912366  -0.03211560   0.38634238   1.30016298  -0.06620075   0.18884582   1.57437758  -9.77074815
   0.67912366   0.00000000   0.39088634   1.30535734  -0.00000000   0.19154311   1.57651828  -9.64698946