 VARIABLES = "X" "Y" "RHO" "U" "V" "pres"
 Zone I=          41 , J=          99 , F=POINT
  0.01789925 -0.19965339  1.00779840  0.27544121  0.00957156  0.72210347
  0.01789925 -0.18967072  1.00723814  0.27635195  0.00870641  0.72154174
  0.01789925 -0.17968805  1.00602119  0.27895442  0.00847366  0.72032211
  0.01789925 -0.16970538  1.00476598  0.28285267  0.00833135  0.71906453
  0.01789925 -0.15972271  1.00357906  0.28734469  0.00811714  0.71787512
  0.01789925 -0.14974004  1.00240178  0.29190406  0.00784785  0.71669518
  0.01789925 -0.13975737  1.00124192  0.29624148  0.00751287  0.71553300
  0.01789925 -0.12977470  1.00012834  0.30023883  0.00710588  0.71441782
  0.01789925 -0.11979203  0.99907481  0.30387812  0.00664345  0.71336349
  0.01789925 -0.10980936  0.99808721  0.30718407  0.00614657  0.71237574
  0.01789925 -0.09982669  0.99717057  0.31018704  0.00562928  0.71145940
  0.01789925 -0.08984402  0.99632930  0.31290729  0.00509889  0.71061871
  0.01789925 -0.07986135  0.99556695  0.31535293  0.00455868  0.70985711
  0.01789925 -0.06987869  0.99488657  0.31752373  0.00400994  0.70917755
  0.01789925 -0.05989602  0.99429096  0.31941550  0.00345324  0.70858280
  0.01789925 -0.04991335  0.99378264  0.32102326  0.00288928  0.70807530
  0.01789925 -0.03993068  0.99336377  0.32234288  0.00231902  0.70765719
  0.01789925 -0.02994801  0.99303614  0.32337142  0.00174366  0.70733021
  0.01789925 -0.01996534  0.99280114  0.32410706  0.00116451  0.70709569
  0.01789925 -0.00998267  0.99265975  0.32454877  0.00058287  0.70695461
  0.01789925  0.00000000  0.99261256  0.32469606 -0.00000000  0.70690752
  0.01789925  0.00998267  0.99265975  0.32454877 -0.00058287  0.70695461
  0.01789925  0.01996534  0.99280114  0.32410706 -0.00116451  0.70709569
  0.01789925  0.02994801  0.99303614  0.32337142 -0.00174366  0.70733021
  0.01789925  0.03993068  0.99336377  0.32234288 -0.00231902  0.70765719
  0.01789925  0.04991335  0.99378264  0.32102326 -0.00288928  0.70807530
  0.01789925  0.05989602  0.99429096  0.31941550 -0.00345324  0.70858280
  0.01789925  0.06987869  0.99488657  0.31752373 -0.00400994  0.70917755
  0.01789925  0.07986135  0.99556695  0.31535293 -0.00455868  0.70985711
  0.01789925  0.08984402  0.99632930  0.31290729 -0.00509889  0.71061871
  0.01789925  0.09982669  0.99717057  0.31018704 -0.00562928  0.71145940
  0.01789925  0.10980936  0.99808721  0.30718407 -0.00614657  0.71237574
  0.01789925  0.11979203  0.99907481  0.30387812 -0.00664345  0.71336349
  0.01789925  0.12977470  1.00012834  0.30023883 -0.00710588  0.71441782
  0.01789925  0.13975737  1.00124192  0.29624148 -0.00751287  0.71553300
  0.01789925  0.14974004  1.00240178  0.29190406 -0.00784785  0.71669518
  0.01789925  0.15972271  1.00357906  0.28734469 -0.00811714  0.71787512
  0.01789925  0.16970538  1.00476598  0.28285267 -0.00833135  0.71906453
  0.01789925  0.17968805  1.00602119  0.27895442 -0.00847366  0.72032211
  0.01789925  0.18967072  1.00723814  0.27635195 -0.00870641  0.72154174
  0.01789925  0.19965339  1.00779840  0.27544121 -0.00957156  0.72210347
  0.03572951 -0.19876020  1.00805396  0.27692266  0.01911868  0.72236978
  0.03572951 -0.18882219  1.00732796  0.27783036  0.01728695  0.72164110
  0.03572951 -0.17888418  1.00581535  0.28026320  0.01639534  0.72012369
  0.03572951 -0.16894617  1.00438639  0.28402519  0.01573788  0.71869095
  0.03572951 -0.15900816  1.00314581  0.28850152  0.01508668  0.71744693
  0.03572951 -0.14907015  1.00195605  0.29313282  0.01444403  0.71625353
  0.03572951 -0.13913214  1.00079469  0.29757063  0.01375707  0.71508883
  0.03572951 -0.12919413  0.99968515  0.30165630  0.01298380  0.71397682
  0.03572951 -0.11925612  0.99863683  0.30535568  0.01212991  0.71292709
  0.03572951 -0.10931811  0.99765288  0.30869442  0.01121921  0.71194264
  0.03572951 -0.09938010  0.99673843  0.31171144  0.01027157  0.71102831
  0.03572951 -0.08944209  0.99589883  0.31443604  0.00929947  0.71018916
  0.03572951 -0.07950408  0.99513818  0.31688260  0.00830973  0.70942913
  0.03572951 -0.06956607  0.99445967  0.31905396  0.00730553  0.70875131
  0.03572951 -0.05962806  0.99386604  0.32094682  0.00628836  0.70815839
  0.03572951 -0.04969005  0.99335966  0.32255605  0.00525941  0.70765271
  0.03572951 -0.03975204  0.99294256  0.32387710  0.00422018  0.70723625
  0.03572951 -0.02981403  0.99261640  0.32490678  0.00317253  0.70691063
  0.03572951 -0.01987602  0.99238247  0.32564317  0.00211853  0.70667713
  0.03572951 -0.00993801  0.99224174  0.32608529  0.00106031  0.70653666
  0.03572951  0.00000000  0.99219477  0.32623271 -0.00000000  0.70648978
  0.03572951  0.00993801  0.99224174  0.32608529 -0.00106031  0.70653666
  0.03572951  0.01987602  0.99238247  0.32564317 -0.00211853  0.70667713
  0.03572951  0.02981403  0.99261640  0.32490678 -0.00317253  0.70691063
  0.03572951  0.03975204  0.99294256  0.32387710 -0.00422018  0.70723625
  0.03572951  0.04969005  0.99335966  0.32255605 -0.00525941  0.70765271
  0.03572951  0.05962806  0.99386604  0.32094682 -0.00628836  0.70815839
  0.03572951  0.06956607  0.99445967  0.31905396 -0.00730553  0.70875131
  0.03572951  0.07950408  0.99513818  0.31688260 -0.00830973  0.70942913
  0.03572951  0.08944209  0.99589883  0.31443604 -0.00929947  0.71018916
  0.03572951  0.09938010  0.99673843  0.31171144 -0.01027157  0.71102831
  0.03572951  0.10931811  0.99765288  0.30869442 -0.01121921  0.71194264
  0.03572951  0.11925612  0.99863683  0.30535568 -0.01212991  0.71292709
  0.03572951  0.12919413  0.99968515  0.30165630 -0.01298380  0.71397682
  0.03572951  0.13913214  1.00079469  0.29757063 -0.01375707  0.71508883
  0.03572951  0.14907015  1.00195605  0.29313282 -0.01444403  0.71625353
  0.03572951  0.15900816  1.00314581  0.28850152 -0.01508668  0.71744693
  0.03572951  0.16894617  1.00438639  0.28402519 -0.01573788  0.71869095
  0.03572951  0.17888418  1.00581535  0.28026320 -0.01639534  0.72012369
  0.03572951  0.18882219  1.00732796  0.27783036 -0.01728695  0.72164110
  0.03572951  0.19876020  1.00805396  0.27692266 -0.01911868  0.72236978
  0.05343404 -0.19720514  1.00745459  0.27997346  0.02905010  0.72177543
  0.05343404 -0.18734488  1.00670709  0.28083505  0.02658607  0.72102514
  0.05343404 -0.17748463  1.00513115  0.28298537  0.02503443  0.71944404
  0.05343404 -0.16762437  1.00362982  0.28646737  0.02377561  0.71793853
  0.05343404 -0.15776411  1.00233891  0.29081190  0.02259481  0.71664377
  0.05343404 -0.14790386  1.00111518  0.29545122  0.02148959  0.71541583
  0.05343404 -0.13804360  0.99993109  0.29997106  0.02037827  0.71422768
  0.05343404 -0.12818334  0.99880913  0.30415290  0.01918715  0.71310259
  0.05343404 -0.11832308  0.99775580  0.30792811  0.01790448  0.71204741
  0.05343404 -0.10846283  0.99677087  0.31131228  0.01654940  0.71106180
  0.05343404 -0.09860257  0.99585747  0.31434943  0.01514353  0.71014855
  0.05343404 -0.08874231  0.99502000  0.31707903  0.01370299  0.70931167
  0.05343404 -0.07888206  0.99426201  0.31952427  0.01223788  0.70855444
  0.05343404 -0.06902180  0.99358637  0.32169319  0.01075340  0.70787960
  0.05343404 -0.05916154  0.99299563  0.32358454  0.00925200  0.70728963
  0.05343404 -0.04930129  0.99249199  0.32519337  0.00773531  0.70678672
  0.05343404 -0.03944103  0.99207733  0.32651462  0.00620514  0.70637272
  0.05343404 -0.02958077  0.99175320  0.32754463  0.00466381  0.70604914
  0.05343404 -0.01972051  0.99152080  0.32828126  0.00311396  0.70581717
  0.05343404 -0.00986026  0.99138101  0.32872349  0.00155840  0.70567765
  0.05343404  0.00000000  0.99133436  0.32887093 -0.00000000  0.70563109
  0.05343404  0.00986026  0.99138101  0.32872349 -0.00155840  0.70567765
  0.05343404  0.01972051  0.99152080  0.32828126 -0.00311396  0.70581717
  0.05343404  0.02958077  0.99175320  0.32754463 -0.00466381  0.70604914
  0.05343404  0.03944103  0.99207733  0.32651462 -0.00620514  0.70637272
  0.05343404  0.04930129  0.99249199  0.32519337 -0.00773531  0.70678672
  0.05343404  0.05916154  0.99299563  0.32358454 -0.00925200  0.70728963
  0.05343404  0.06902180  0.99358637  0.32169319 -0.01075340  0.70787960
  0.05343404  0.07888206  0.99426201  0.31952427 -0.01223788  0.70855444
  0.05343404  0.08874231  0.99502000  0.31707903 -0.01370299  0.70931167
  0.05343404  0.09860257  0.99585747  0.31434943 -0.01514353  0.71014855
  0.05343404  0.10846283  0.99677087  0.31131228 -0.01654940  0.71106180
  0.05343404  0.11832308  0.99775580  0.30792811 -0.01790448  0.71204741
  0.05343404  0.12818334  0.99880913  0.30415290 -0.01918715  0.71310259
  0.05343404  0.13804360  0.99993109  0.29997106 -0.02037827  0.71422768
  0.05343404  0.14790386  1.00111518  0.29545122 -0.02148959  0.71541583
  0.05343404  0.15776411  1.00233891  0.29081190 -0.02259481  0.71664377
  0.05343404  0.16762437  1.00362982  0.28646737 -0.02377561  0.71793853
  0.05343404  0.17748463  1.00513115  0.28298537 -0.02503443  0.71944404
  0.05343404  0.18734488  1.00670709  0.28083505 -0.02658607  0.72102514
  0.05343404  0.19720514  1.00745459  0.27997346 -0.02905010  0.72177543
  0.07096544 -0.19511070  1.00595350  0.28431162  0.03841808  0.72027333
  0.07096544 -0.18535517  1.00528642  0.28514858  0.03573837  0.71960412
  0.07096544 -0.17559963  1.00382691  0.28706284  0.03369865  0.71814068
  0.07096544 -0.16584410  1.00236502  0.29024404  0.03190939  0.71667550
  0.07096544 -0.15608856  1.00107603  0.29437540  0.03021776  0.71538322
  0.07096544 -0.14633303  0.99984941  0.29893339  0.02863312  0.71415258
  0.07096544 -0.13657749  0.99866279  0.30347204  0.02707086  0.71296170
  0.07096544 -0.12682196  0.99753960  0.30771843  0.02544137  0.71183502
  0.07096544 -0.11706642  0.99648725  0.31155952  0.02371702  0.71078056
  0.07096544 -0.10731089  0.99550531  0.31498841  0.02190911  0.70979790
  0.07096544 -0.09755535  0.99459625  0.31804589  0.02003837  0.70888917
  0.07096544 -0.08779982  0.99376393  0.32077831  0.01812351  0.70805774
  0.07096544 -0.07804428  0.99301145  0.32321775  0.01617772  0.70730635
  0.07096544 -0.06828875  0.99234134  0.32537882  0.01420851  0.70663733
  0.07096544 -0.05853321  0.99175589  0.32726353  0.01221949  0.70605288
  0.07096544 -0.04877768  0.99125709  0.32886777  0.01021274  0.70555498
  0.07096544 -0.03902214  0.99084665  0.33018612  0.00819028  0.70514531
  0.07096544 -0.02926661  0.99052594  0.33121430  0.00615464  0.70482525
  0.07096544 -0.01951107  0.99029608  0.33194974  0.00410882  0.70459587
  0.07096544 -0.00975554  0.99015784  0.33239127  0.00205614  0.70445793
  0.07096544  0.00000000  0.99011171  0.33253847 -0.00000000  0.70441191
  0.07096544  0.00975554  0.99015784  0.33239127 -0.00205614  0.70445793
  0.07096544  0.01951107  0.99029608  0.33194974 -0.00410882  0.70459587
  0.07096544  0.02926661  0.99052594  0.33121430 -0.00615464  0.70482525
  0.07096544  0.03902214  0.99084665  0.33018612 -0.00819028  0.70514531
  0.07096544  0.04877768  0.99125709  0.32886777 -0.01021274  0.70555498
  0.07096544  0.05853321  0.99175589  0.32726353 -0.01221949  0.70605288
  0.07096544  0.06828875  0.99234134  0.32537882 -0.01420851  0.70663733
  0.07096544  0.07804428  0.99301145  0.32321775 -0.01617772  0.70730635
  0.07096544  0.08779982  0.99376393  0.32077831 -0.01812351  0.70805774
  0.07096544  0.09755535  0.99459625  0.31804589 -0.02003837  0.70888917
  0.07096544  0.10731089  0.99550531  0.31498841 -0.02190911  0.70979790
  0.07096544  0.11706642  0.99648725  0.31155952 -0.02371702  0.71078056
  0.07096544  0.12682196  0.99753960  0.30771843 -0.02544137  0.71183502
  0.07096544  0.13657749  0.99866279  0.30347204 -0.02707086  0.71296170
  0.07096544  0.14633303  0.99984941  0.29893339 -0.02863312  0.71415258
  0.07096544  0.15608856  1.00107603  0.29437540 -0.03021776  0.71538322
  0.07096544  0.16584410  1.00236502  0.29024404 -0.03190939  0.71667550
  0.07096544  0.17559963  1.00382691  0.28706284 -0.03369865  0.71814068
  0.07096544  0.18535517  1.00528642  0.28514858 -0.03573837  0.71960412
  0.07096544  0.19511070  1.00595350  0.28431162 -0.03841808  0.72027333
  0.08826596 -0.19250657  1.00409900  0.28951745  0.04780854  0.71841662
  0.08826596 -0.18288124  1.00347178  0.29042805  0.04469482  0.71778770
  0.08826596 -0.17325591  1.00207585  0.29224233  0.04218335  0.71638888
  0.08826596 -0.16363059  1.00064753  0.29520957  0.03991714  0.71495856
  0.08826596 -0.15400526  0.99937827  0.29913249  0.03774438  0.71368716
  0.08826596 -0.14437993  0.99817120  0.30356349  0.03568653  0.71247688
  0.08826596 -0.13475460  0.99700185  0.30806682  0.03367000  0.71130368
  0.08826596 -0.12512927  0.99589242  0.31233824  0.03159995  0.71019080
  0.08826596 -0.11550394  0.99485186  0.31622421  0.02943601  0.70914807
  0.08826596 -0.10587861  0.99388083  0.31968935  0.02718035  0.70817641
  0.08826596 -0.09625329  0.99298211  0.32276358  0.02485098  0.70727828
  0.08826596 -0.08662796  0.99215965  0.32549523  0.02246803  0.70645711
  0.08826596 -0.07700263  0.99141657  0.32792368  0.02004764  0.70571558
  0.08826596 -0.06737730  0.99075534  0.33007058  0.01759995  0.70505585
  0.08826596 -0.05775197  0.99017805  0.33194232  0.01513021  0.70447992
  0.08826596 -0.04812664  0.98968654  0.33353648  0.01264120  0.70398957
  0.08826596 -0.03850131  0.98928232  0.33484765  0.01013514  0.70358631
  0.08826596 -0.02887599  0.98896662  0.33587093  0.00761463  0.70327140
  0.08826596 -0.01925066  0.98874042  0.33660318  0.00508284  0.70304578
  0.08826596 -0.00962533  0.98860441  0.33704286  0.00254336  0.70291014
  0.08826596  0.00000000  0.98855903  0.33718946 -0.00000000  0.70286488
  0.08826596  0.00962533  0.98860441  0.33704286 -0.00254336  0.70291014
  0.08826596  0.01925066  0.98874042  0.33660318 -0.00508284  0.70304578
  0.08826596  0.02887599  0.98896662  0.33587093 -0.00761463  0.70327140
  0.08826596  0.03850131  0.98928232  0.33484765 -0.01013514  0.70358631
  0.08826596  0.04812664  0.98968654  0.33353648 -0.01264120  0.70398957
  0.08826596  0.05775197  0.99017805  0.33194232 -0.01513021  0.70447992
  0.08826596  0.06737730  0.99075534  0.33007058 -0.01759995  0.70505585
  0.08826596  0.07700263  0.99141657  0.32792368 -0.02004764  0.70571558
  0.08826596  0.08662796  0.99215965  0.32549523 -0.02246803  0.70645711
  0.08826596  0.09625329  0.99298211  0.32276358 -0.02485098  0.70727828
  0.08826596  0.10587861  0.99388083  0.31968935 -0.02718035  0.70817641
  0.08826596  0.11550394  0.99485186  0.31622421 -0.02943601  0.70914807
  0.08826596  0.12512927  0.99589242  0.31233824 -0.03159995  0.71019080
  0.08826596  0.13475460  0.99700185  0.30806682 -0.03367000  0.71130368
  0.08826596  0.14437993  0.99817120  0.30356349 -0.03568653  0.71247688
  0.08826596  0.15400526  0.99937827  0.29913249 -0.03774438  0.71368716
  0.08826596  0.16363059  1.00064753  0.29520957 -0.03991714  0.71495856
  0.08826596  0.17325591  1.00207585  0.29224233 -0.04218335  0.71638888
  0.08826596  0.18288124  1.00347178  0.29042805 -0.04469482  0.71778770
  0.08826596  0.19250657  1.00409900  0.28951745 -0.04780854  0.71841662
  0.10529550 -0.18945045  1.00194010  0.29557712  0.05695844  0.71625636
  0.10529550 -0.17997793  1.00133638  0.29659830  0.05344193  0.71565127
  0.10529550 -0.17050541  0.99997086  0.29839938  0.05046860  0.71428375
  0.10529550 -0.16103288  0.99855168  0.30123961  0.04774057  0.71286375
  0.10529550 -0.15156036  0.99729241  0.30499831  0.04509821  0.71160365
  0.10529550 -0.14208784  0.99610349  0.30929962  0.04257117  0.71041273
  0.10529550 -0.13261532  0.99495436  0.31373964  0.04009999  0.70926061
  0.10529550 -0.12314279  0.99386390  0.31800564  0.03759007  0.70816718
  0.10529550 -0.11367027  0.99284117  0.32191534  0.03499148  0.70714251
  0.10529550 -0.10419775  0.99188700  0.32540584  0.03229730  0.70618790
  0.10529550 -0.09472523  0.99100402  0.32849180  0.02952104  0.70530585
  0.10529550 -0.08525270  0.99019612  0.33121901  0.02668261  0.70449972
  0.10529550 -0.07578018  0.98946649  0.33363176  0.02380030  0.70377217
  0.10529550 -0.06630766  0.98881757  0.33575847  0.02088684  0.70312528
  0.10529550 -0.05683514  0.98825139  0.33761076  0.01794943  0.70256088
  0.10529550 -0.04736261  0.98776962  0.33918884  0.01499185  0.70208061
  0.10529550 -0.03789009  0.98737362  0.34048793  0.01201666  0.70168585
  0.10529550 -0.02841757  0.98706449  0.34150269  0.00902648  0.70137769
  0.10529550 -0.01894505  0.98684307  0.34222932  0.00602446  0.70115697
  0.10529550 -0.00947252  0.98670997  0.34266581  0.00301430  0.70102431
  0.10529550  0.00000000  0.98666557  0.34281136 -0.00000000  0.70098005
  0.10529550  0.00947252  0.98670997  0.34266581 -0.00301430  0.70102431
  0.10529550  0.01894505  0.98684307  0.34222932 -0.00602446  0.70115697
  0.10529550  0.02841757  0.98706449  0.34150269 -0.00902648  0.70137769
  0.10529550  0.03789009  0.98737362  0.34048793 -0.01201666  0.70168585
  0.10529550  0.04736261  0.98776962  0.33918884 -0.01499185  0.70208061
  0.10529550  0.05683514  0.98825139  0.33761076 -0.01794943  0.70256088
  0.10529550  0.06630766  0.98881757  0.33575847 -0.02088684  0.70312528
  0.10529550  0.07578018  0.98946649  0.33363176 -0.02380030  0.70377217
  0.10529550  0.08525270  0.99019612  0.33121901 -0.02668261  0.70449972
  0.10529550  0.09472523  0.99100402  0.32849180 -0.02952104  0.70530585
  0.10529550  0.10419775  0.99188700  0.32540584 -0.03229730  0.70618790
  0.10529550  0.11367027  0.99284117  0.32191534 -0.03499148  0.70714251
  0.10529550  0.12314279  0.99386390  0.31800564 -0.03759007  0.70816718
  0.10529550  0.13261532  0.99495436  0.31373964 -0.04009999  0.70926061
  0.10529550  0.14208784  0.99610349  0.30929962 -0.04257117  0.71041273
  0.10529550  0.15156036  0.99729241  0.30499831 -0.04509821  0.71160365
  0.10529550  0.16103288  0.99855168  0.30123961 -0.04774057  0.71286375
  0.10529550  0.17050541  0.99997086  0.29839938 -0.05046860  0.71428375
  0.10529550  0.17997793  1.00133638  0.29659830 -0.05344193  0.71565127
  0.10529550  0.18945045  1.00194010  0.29557712 -0.05695844  0.71625636
  0.12203183 -0.18600852  0.99939274  0.30256254  0.06583318  0.71370999
  0.12203183 -0.17670809  0.99881620  0.30370888  0.06194069  0.71313239
  0.12203183 -0.16740766  0.99748619  0.30553620  0.05852045  0.71180117
  0.12203183 -0.15810724  0.99607638  0.30829962  0.05534164  0.71039164
  0.12203183 -0.14880681  0.99482357  0.31193105  0.05223925  0.70913930
  0.12203183 -0.13950639  0.99364854  0.31611207  0.04924830  0.70796364
  0.12203183 -0.13020596  0.99251707  0.32047489  0.04632347  0.70683038
  0.12203183 -0.12090553  0.99144543  0.32471241  0.04337418  0.70575659
  0.12203183 -0.11160511  0.99044227  0.32862565  0.04034492  0.70475200
  0.12203183 -0.10230468  0.98950788  0.33212874  0.03722102  0.70381755
  0.12203183 -0.09300426  0.98864411  0.33521974  0.03401067  0.70295512
  0.12203183 -0.08370383  0.98785437  0.33793838  0.03073194  0.70216767
  0.12203183 -0.07440341  0.98714159  0.34033114  0.02740394  0.70145757
  0.12203183 -0.06510298  0.98650808  0.34243226  0.02404142  0.70082666
  0.12203183 -0.05580255  0.98595570  0.34425892  0.02065348  0.70027658
  0.12203183 -0.04650213  0.98548598  0.34581485  0.01724505  0.69980878
  0.12203183 -0.03720170  0.98510011  0.34709661  0.01381914  0.69942445
  0.12203183 -0.02790128  0.98479903  0.34809883  0.01037838  0.69912456
  0.12203183 -0.01860085  0.98458346  0.34881710  0.00692580  0.69890985
  0.12203183 -0.00930043  0.98445391  0.34924882  0.00346501  0.69878082
  0.12203183  0.00000000  0.98441069  0.34939282 -0.00000000  0.69873777
  0.12203183  0.00930043  0.98445391  0.34924882 -0.00346501  0.69878082
  0.12203183  0.01860085  0.98458346  0.34881710 -0.00692580  0.69890985
  0.12203183  0.02790128  0.98479903  0.34809883 -0.01037838  0.69912456
  0.12203183  0.03720170  0.98510011  0.34709661 -0.01381914  0.69942445
  0.12203183  0.04650213  0.98548598  0.34581485 -0.01724505  0.69980878
  0.12203183  0.05580255  0.98595570  0.34425892 -0.02065348  0.70027658
  0.12203183  0.06510298  0.98650808  0.34243226 -0.02404142  0.70082666
  0.12203183  0.07440341  0.98714159  0.34033114 -0.02740394  0.70145757
  0.12203183  0.08370383  0.98785437  0.33793838 -0.03073194  0.70216767
  0.12203183  0.09300426  0.98864411  0.33521974 -0.03401067  0.70295512
  0.12203183  0.10230468  0.98950788  0.33212874 -0.03722102  0.70381755
  0.12203183  0.11160511  0.99044227  0.32862565 -0.04034492  0.70475200
  0.12203183  0.12090553  0.99144543  0.32471241 -0.04337418  0.70575659
  0.12203183  0.13020596  0.99251707  0.32047489 -0.04632347  0.70683038
  0.12203183  0.13950639  0.99364854  0.31611207 -0.04924830  0.70796364
  0.12203183  0.14880681  0.99482357  0.31193105 -0.05223925  0.70913930
  0.12203183  0.15810724  0.99607638  0.30829962 -0.05534164  0.71039164
  0.12203183  0.16740766  0.99748619  0.30553620 -0.05852045  0.71180117
  0.12203183  0.17670809  0.99881620  0.30370888 -0.06194069  0.71313239
  0.12203183  0.18600852  0.99939274  0.30256254 -0.06583318  0.71370999
  0.13843255 -0.18224908  0.99641557  0.31051931  0.07442834  0.71073765
  0.13843255 -0.17313663  0.99586866  0.31180177  0.07015585  0.71018995
  0.13843255 -0.16402418  0.99458142  0.31367664  0.06629526  0.70890224
  0.13843255 -0.15491172  0.99318954  0.31638997  0.06267657  0.70751169
  0.13843255 -0.14579927  0.99194893  0.31991549  0.05912646  0.70627280
  0.13843255 -0.13668681  0.99079083  0.32398198  0.05568140  0.70511551
  0.13843255 -0.12757436  0.98967888  0.32825630  0.05230861  0.70400316
  0.13843255 -0.11846190  0.98862776  0.33244435  0.04892372  0.70295101
  0.13843255 -0.10934945  0.98764619  0.33633981  0.04546908  0.70196876
  0.13843255 -0.10023700  0.98673400  0.33983951  0.04192457  0.70105707
  0.13843255 -0.09112454  0.98589223  0.34292562  0.03829336  0.70021713
  0.13843255 -0.08201209  0.98512359  0.34562955  0.03459068  0.69945135
  0.13843255 -0.07289963  0.98443061  0.34799736  0.03083529  0.69876165
  0.13843255 -0.06378718  0.98381526  0.35006753  0.02704308  0.69814953
  0.13843255 -0.05467473  0.98327916  0.35186257  0.02322465  0.69761630
  0.13843255 -0.04556227  0.98282363  0.35339026  0.01938606  0.69716315
  0.13843255 -0.03644982  0.98244968  0.35464922  0.01553079  0.69679110
  0.13843255 -0.02733736  0.98215807  0.35563452  0.01166148  0.69650093
  0.13843255 -0.01822491  0.98194937  0.35634137  0.00778094  0.69629325
  0.13843255 -0.00911245  0.98182398  0.35676654  0.00389250  0.69616848
  0.13843255  0.00000000  0.98178216  0.35690842 -0.00000000  0.69612686
  0.13843255  0.00911245  0.98182398  0.35676654 -0.00389250  0.69616848
  0.13843255  0.01822491  0.98194937  0.35634137 -0.00778094  0.69629325
  0.13843255  0.02733736  0.98215807  0.35563452 -0.01166148  0.69650093
  0.13843255  0.03644982  0.98244968  0.35464922 -0.01553079  0.69679110
  0.13843255  0.04556227  0.98282363  0.35339026 -0.01938606  0.69716315
  0.13843255  0.05467473  0.98327916  0.35186257 -0.02322465  0.69761630
  0.13843255  0.06378718  0.98381526  0.35006753 -0.02704308  0.69814953
  0.13843255  0.07289963  0.98443061  0.34799736 -0.03083529  0.69876165
  0.13843255  0.08201209  0.98512359  0.34562955 -0.03459068  0.69945135
  0.13843255  0.09112454  0.98589223  0.34292562 -0.03829336  0.70021713
  0.13843255  0.10023700  0.98673400  0.33983951 -0.04192457  0.70105707
  0.13843255  0.10934945  0.98764619  0.33633981 -0.04546908  0.70196876
  0.13843255  0.11846190  0.98862776  0.33244435 -0.04892372  0.70295101
  0.13843255  0.12757436  0.98967888  0.32825630 -0.05230861  0.70400316
  0.13843255  0.13668681  0.99079083  0.32398198 -0.05568140  0.70511551
  0.13843255  0.14579927  0.99194893  0.31991549 -0.05912646  0.70627280
  0.13843255  0.15491172  0.99318954  0.31638997 -0.06267657  0.70751169
  0.13843255  0.16402418  0.99458142  0.31367664 -0.06629526  0.70890224
  0.13843255  0.17313663  0.99586866  0.31180177 -0.07015585  0.71018995
  0.13843255  0.18224908  0.99641557  0.31051931 -0.07442834  0.71073765
  0.15446471 -0.17824304  0.99299251  0.31946863  0.08269288  0.70732476
  0.15446471 -0.16933089  0.99247818  0.32088979  0.07805116  0.70680989
  0.15446471 -0.16041874  0.99124038  0.32282461  0.07375703  0.70557234
  0.15446471 -0.15150659  0.98987367  0.32550360  0.06970774  0.70420798
  0.15446471 -0.14259444  0.98865208  0.32893513  0.06572186  0.70298934
  0.15446471 -0.13368228  0.98751714  0.33288857  0.06183445  0.70185667
  0.15446471 -0.12477013  0.98643016  0.33706318  0.05802341  0.70077078
  0.15446471 -0.11585798  0.98540419  0.34118161  0.05421105  0.69974507
  0.15446471 -0.10694583  0.98444818  0.34503698  0.05033967  0.69878937
  0.15446471 -0.09803367  0.98356183  0.34851430  0.04638571  0.69790422
  0.15446471 -0.08912152  0.98274547  0.35158194  0.04234817  0.69709029
  0.15446471 -0.08020937  0.98200119  0.35426209  0.03823922  0.69634945
  0.15446471 -0.07129722  0.98133104  0.35659826  0.03407638  0.69568321
  0.15446471 -0.06238507  0.98073663  0.35863143  0.02987585  0.69509266
  0.15446471 -0.05347291  0.98021929  0.36038865  0.02564925  0.69457877
  0.15446471 -0.04456076  0.97978008  0.36188191  0.02140351  0.69414244
  0.15446471 -0.03564861  0.97941981  0.36311239  0.01714256  0.69378445
  0.15446471 -0.02673646  0.97913905  0.36407612  0.01286900  0.69350542
  0.15446471 -0.01782430  0.97893823  0.36476818  0.00858535  0.69330580
  0.15446471 -0.00891215  0.97881761  0.36518480  0.00429453  0.69318590
  0.15446471  0.00000000  0.97877739  0.36532389 -0.00000000  0.69314592
  0.15446471  0.00891215  0.97881761  0.36518480 -0.00429453  0.69318590
  0.15446471  0.01782430  0.97893823  0.36476818 -0.00858535  0.69330580
  0.15446471  0.02673646  0.97913905  0.36407612 -0.01286900  0.69350542
  0.15446471  0.03564861  0.97941981  0.36311239 -0.01714256  0.69378445
  0.15446471  0.04456076  0.97978008  0.36188191 -0.02140351  0.69414244
  0.15446471  0.05347291  0.98021929  0.36038865 -0.02564925  0.69457877
  0.15446471  0.06238507  0.98073663  0.35863143 -0.02987585  0.69509266
  0.15446471  0.07129722  0.98133104  0.35659826 -0.03407638  0.69568321
  0.15446471  0.08020937  0.98200119  0.35426209 -0.03823922  0.69634945
  0.15446471  0.08912152  0.98274547  0.35158194 -0.04234817  0.69709029
  0.15446471  0.09803367  0.98356183  0.34851430 -0.04638571  0.69790422
  0.15446471  0.10694583  0.98444818  0.34503698 -0.05033967  0.69878937
  0.15446471  0.11585798  0.98540419  0.34118161 -0.05421105  0.69974507
  0.15446471  0.12477013  0.98643016  0.33706318 -0.05802341  0.70077078
  0.15446471  0.13368228  0.98751714  0.33288857 -0.06183445  0.70185667
  0.15446471  0.14259444  0.98865208  0.32893513 -0.06572186  0.70298934
  0.15446471  0.15150659  0.98987367  0.32550360 -0.06970774  0.70420798
  0.15446471  0.16041874  0.99124038  0.32282461 -0.07375703  0.70557234
  0.15446471  0.16933089  0.99247818  0.32088979 -0.07805116  0.70680989
  0.15446471  0.17824304  0.99299251  0.31946863 -0.08269288  0.70732476
  0.17014821 -0.17404687  0.98911480  0.32941091  0.09059521  0.70346441
  0.17014821 -0.16534453  0.98863539  0.33096937  0.08559272  0.70298465
  0.17014821 -0.15664218  0.98745232  0.33296968  0.08087310  0.70180250
  0.17014821 -0.14793984  0.98611651  0.33562232  0.07640248  0.70047005
  0.17014821 -0.13923750  0.98491958  0.33896544  0.07199204  0.69927729
  0.17014821 -0.13053515  0.98381371  0.34280433  0.06767434  0.69817510
  0.17014821 -0.12183281  0.98275759  0.34686829  0.06343685  0.69712162
  0.17014821 -0.11313046  0.98176226  0.35089835  0.05920850  0.69612798
  0.17014821 -0.10442812  0.98083682  0.35469164  0.05493240  0.69520399
  0.17014821 -0.09572578  0.97998084  0.35812612  0.05058284  0.69435006
  0.17014821 -0.08702343  0.97919404  0.36115902  0.04615555  0.69356636
  0.17014821 -0.07832109  0.97847790  0.36380360  0.04165973  0.69285426
  0.17014821 -0.06961875  0.97783399  0.36609942  0.03711114  0.69221488
  0.17014821 -0.06091640  0.97726354  0.36808838  0.03252562  0.69164891
  0.17014821 -0.05221406  0.97676758  0.36980112  0.02791521  0.69115699
  0.17014821 -0.04351172  0.97634693  0.37125353  0.02328746  0.69073972
  0.17014821 -0.03480937  0.97600218  0.37244968  0.01864658  0.69039764
  0.17014821 -0.02610703  0.97573370  0.37338696  0.01399511  0.69013117
  0.17014821 -0.01740469  0.97554176  0.37406061  0.00933516  0.68994063
  0.17014821 -0.00870234  0.97542654  0.37446650  0.00466917  0.68982623
  0.17014821  0.00000000  0.97538812  0.37460207 -0.00000000  0.68978808
  0.17014821  0.00870234  0.97542654  0.37446650 -0.00466917  0.68982623
  0.17014821  0.01740469  0.97554176  0.37406061 -0.00933516  0.68994063
  0.17014821  0.02610703  0.97573370  0.37338696 -0.01399511  0.69013117
  0.17014821  0.03480937  0.97600218  0.37244968 -0.01864658  0.69039764
  0.17014821  0.04351172  0.97634693  0.37125353 -0.02328746  0.69073972
  0.17014821  0.05221406  0.97676758  0.36980112 -0.02791521  0.69115699
  0.17014821  0.06091640  0.97726354  0.36808838 -0.03252562  0.69164891
  0.17014821  0.06961875  0.97783399  0.36609942 -0.03711114  0.69221488
  0.17014821  0.07832109  0.97847790  0.36380360 -0.04165973  0.69285426
  0.17014821  0.08702343  0.97919404  0.36115902 -0.04615555  0.69356636
  0.17014821  0.09572578  0.97998084  0.35812612 -0.05058284  0.69435006
  0.17014821  0.10442812  0.98083682  0.35469164 -0.05493240  0.69520399
  0.17014821  0.11313046  0.98176226  0.35089835 -0.05920850  0.69612798
  0.17014821  0.12183281  0.98275759  0.34686829 -0.06343685  0.69712162
  0.17014821  0.13053515  0.98381371  0.34280433 -0.06767434  0.69817510
  0.17014821  0.13923750  0.98491958  0.33896544 -0.07199204  0.69927729
  0.17014821  0.14793984  0.98611651  0.33562232 -0.07640248  0.70047005
  0.17014821  0.15664218  0.98745232  0.33296968 -0.08087310  0.70180250
  0.17014821  0.16534453  0.98863539  0.33096937 -0.08559272  0.70298465