 VARIABLES = "X" "Y" "RHO" "U" "V" "pres" "mach"      "log(rms)"
 Zone I=          13 , J=          71 , F=POINT
   0.00000000  -0.10000000   1.00014669   0.30022688   0.00207967   0.71443006   0.30023310  -9.76674675
   0.00000000  -0.08333333   0.99989385   0.30090708   0.00174496   0.71417721   0.30092420 -13.69721791
   0.00000000  -0.06666667   0.99927315   0.30275655   0.00147825   0.71355661   0.30280846 -13.78407992
   0.00000000  -0.05000000   0.99856073   0.30515804   0.00118478   0.71284441   0.30525127 -13.82809015
   0.00000000  -0.03333333   0.99795654   0.30734741   0.00082677   0.71224035   0.30747618 -13.79099200
   0.00000000  -0.01666667   0.99755699   0.30882325   0.00042432   0.71184085   0.30897577 -13.79021548
   0.00000000   0.00000000   0.99741710   0.30933922   0.00000000   0.71170097   0.30950012 -13.73128234
   0.00000000   0.01666667   0.99755699   0.30882325  -0.00042432   0.71184085   0.30897577 -13.81943404
   0.00000000   0.03333333   0.99795654   0.30734741  -0.00082677   0.71224035   0.30747618 -13.82851137
   0.00000000   0.05000000   0.99856073   0.30515804  -0.00118478   0.71284441   0.30525127 -13.82838833
   0.00000000   0.06666667   0.99927315   0.30275655  -0.00147825   0.71355661   0.30280846 -13.91589194
   0.00000000   0.08333333   0.99989385   0.30090708  -0.00174496   0.71417721   0.30092420 -13.87111427
   0.00000000   0.10000000   1.00014669   0.30022688  -0.00207967   0.71443006   0.30023310  -9.82736849
   0.02854984  -0.09960447   1.00057675   0.30133736   0.00840719   0.71485800   0.30145311 -13.75219013
   0.02854984  -0.08300372   1.00014376   0.30203979   0.00658503   0.71442422   0.30212083 -13.65365518
   0.02854984  -0.06640298   0.99924219   0.30385353   0.00529732   0.71352142   0.30395697 -13.81379145
   0.02854984  -0.04980223   0.99844204   0.30623845   0.00409233   0.71272040   0.30636875 -13.98708212
   0.02854984  -0.03320149   0.99789139   0.30844780   0.00278687   0.71216889   0.30859567 -13.95217554
   0.02854984  -0.01660074   0.99755601   0.30995383   0.00141072   0.71183277   0.31011248 -13.86546448
   0.02854984   0.00000000   0.99743970   0.31048320   0.00000000   0.71171618   0.31064573 -13.81833434
   0.02854984   0.01660074   0.99755601   0.30995383  -0.00141072   0.71183277   0.31011248 -13.90642417
   0.02854984   0.03320149   0.99789139   0.30844780  -0.00278687   0.71216889   0.30859567 -13.91569641
   0.02854984   0.04980223   0.99844204   0.30623845  -0.00409233   0.71272040   0.30636875 -13.91537270
   0.02854984   0.06640298   0.99924219   0.30385353  -0.00529732   0.71352142   0.30395697 -13.91562421
   0.02854984   0.08300372   1.00014376   0.30203979  -0.00658503   0.71442422   0.30212083 -13.91429541
   0.02854984   0.09960447   1.00057675   0.30133736  -0.00840719   0.71485800   0.30145311 -13.82640130
   0.05681829  -0.09842167   1.00012957   0.30518739   0.01669409   0.71441194   0.30566820 -13.66771286
   0.05681829  -0.08201806   0.99957112   0.30589563   0.01316243   0.71385164   0.30622914 -13.79565944
   0.05681829  -0.06561444   0.99842773   0.30755473   0.01036953   0.71270484   0.30784320 -14.04124846
   0.05681829  -0.04921083   0.99746911   0.30982110   0.00781262   0.71174343   0.31008902 -14.05980274
   0.05681829  -0.03280722   0.99686941   0.31201912   0.00522308   0.71114146   0.31226803 -14.06136428
   0.05681829  -0.01640361   0.99652575   0.31356550   0.00261448   0.71079617   0.31380263 -13.97564375
   0.05681829   0.00000000   0.99640812   0.31411735   0.00000000   0.71067794   0.31435092 -13.89973401
   0.05681829   0.01640361   0.99652575   0.31356550  -0.00261448   0.71079617   0.31380263 -13.98971917
   0.05681829   0.03280722   0.99686941   0.31201912  -0.00522308   0.71114146   0.31226803 -13.91582649
   0.05681829   0.04921083   0.99746911   0.30982110  -0.00781262   0.71174343   0.31008902 -13.91516403
   0.05681829   0.06561444   0.99842773   0.30755473  -0.01036953   0.71270484   0.30784320 -13.91524344
   0.05681829   0.08201806   0.99957112   0.30589563  -0.01316243   0.71385164   0.30622914 -13.91185342
   0.05681829   0.09842167   1.00012957   0.30518739  -0.01669409   0.71441194   0.30566820 -13.82451131
   0.08459182  -0.09655162   0.99807566   0.31210425   0.02471839   0.71236142   0.31323439 -13.80242953
   0.08459182  -0.08045969   0.99757603   0.31281436   0.02006835   0.71185941   0.31363592 -13.70736875
   0.08459182  -0.06436775   0.99648201   0.31424662   0.01583312   0.71076057   0.31488749 -13.87090015
   0.08459182  -0.04827581   0.99548604   0.31626934   0.01184234   0.70976014   0.31679451 -13.90078691
   0.08459182  -0.03218387   0.99484185   0.31834081   0.00786842   0.70911225   0.31878231 -13.90879090
   0.08459182  -0.01609194   0.99447415   0.31985684   0.00392162   0.70874192   0.32024898 -13.73426505
   0.08459182   0.00000000   0.99434907   0.32040850   0.00000000   0.70861588   0.32078483 -13.72528012
   0.08459182   0.01609194   0.99447415   0.31985684  -0.00392162   0.70874192   0.32024898 -13.82400780
   0.08459182   0.03218387   0.99484185   0.31834081  -0.00786842   0.70911225   0.31878231 -13.75776177
   0.08459182   0.04827581   0.99548604   0.31626934  -0.01184234   0.70976014   0.31679451 -13.90620039
   0.08459182   0.06436775   0.99648201   0.31424662  -0.01583312   0.71076057   0.31488749 -13.90685080
   0.08459182   0.08045969   0.99757603   0.31281436  -0.02006835   0.71185941   0.31363592 -13.79492321
   0.08459182   0.09655162   0.99807566   0.31210425  -0.02471839   0.71236142   0.31323439 -13.71107727
   0.11168957  -0.09409243   0.99478873   0.32167913   0.03247523   0.70908273   0.32368291 -13.76495059
   0.11168957  -0.07841036   0.99439296   0.32245903   0.02672118   0.70868408   0.32395620 -13.54555450
   0.11168957  -0.06272829   0.99344808   0.32373456   0.02114972   0.70773336   0.32487510 -13.53679763
   0.11168957  -0.04704621   0.99250155   0.32549654   0.01581363   0.70678127   0.32639329 -13.63409524
   0.11168957  -0.03136414   0.99186310   0.32735532   0.01050310   0.70613806   0.32808012 -13.64271822
   0.11168957  -0.01568207   0.99149944   0.32875585   0.00523104   0.70577092   0.32937921 -13.61419600
   0.11168957   0.00000000   0.99137682   0.32927361   0.00000000   0.70564700   0.32986405 -13.61537474
   0.11168957   0.01568207   0.99149944   0.32875585  -0.00523104   0.70577092   0.32937921 -13.65036636
   0.11168957   0.03136414   0.99186310   0.32735532  -0.01050310   0.70613806   0.32808012 -13.64839678
   0.11168957   0.04704621   0.99250155   0.32549654  -0.01581363   0.70678127   0.32639329 -13.87255469
   0.11168957   0.06272829   0.99344808   0.32373456  -0.02114972   0.70773336   0.32487510 -13.87293652
   0.11168957   0.07841036   0.99439296   0.32245903  -0.02672118   0.70868408   0.32395620 -13.60327116
   0.11168957   0.09409243   0.99478873   0.32167913  -0.03247523   0.70908273   0.32368291    -Infinity
   0.13797073  -0.09117991   0.99056476   0.33359714   0.03977647   0.70487625   0.33662717 -13.51805491
   0.13797073  -0.07598326   0.99026184   0.33450855   0.03295783   0.70456970   0.33681676 -13.53366342
   0.13797073  -0.06078661   0.98945564   0.33573261   0.02613699   0.70375638   0.33749045 -13.53294834
   0.13797073  -0.04558996   0.98856835   0.33729338   0.01955875   0.70286270   0.33866493 -13.53578085
   0.13797073  -0.03039330   0.98795556   0.33892663   0.01300246   0.70224455   0.34002612 -13.53651139
   0.13797073  -0.01519665   0.98761363   0.34016899   0.00647792   0.70189865   0.34110676 -13.58525027
   0.13797073   0.00000000   0.98750048   0.34063179   0.00000000   0.70178399   0.34151659 -13.60209214
   0.13797073   0.01519665   0.98761363   0.34016899  -0.00647792   0.70189865   0.34110676 -13.63807508
   0.13797073   0.03039330   0.98795556   0.33892663  -0.01300246   0.70224455   0.34002612 -13.62864908
   0.13797073   0.04558996   0.98856835   0.33729338  -0.01955875   0.70286270   0.33866493 -13.70425738
   0.13797073   0.06078661   0.98945564   0.33573261  -0.02613699   0.70375638   0.33749045 -13.69672020
   0.13797073   0.07598326   0.99026184   0.33450855  -0.03295783   0.70456970   0.33681676 -13.53609232
   0.13797073   0.09117991   0.99056476   0.33359714  -0.03977647   0.70487625   0.33662717    -Infinity
   0.16334169  -0.08794953   0.98542076   0.34777527   0.04654504   0.69976516   0.35193653 -13.54058543
   0.16334169  -0.07329128   0.98520157   0.34884354   0.03872549   0.69954115   0.35206700 -13.48093350
   0.16334169  -0.05863302   0.98451932   0.35007912   0.03074214   0.69884976   0.35255582 -13.48006168
   0.16334169  -0.04397477   0.98368409   0.35149677   0.02301998   0.69800702   0.35344316 -13.53201238
   0.16334169  -0.02931651   0.98309535   0.35292731   0.01531767   0.69741252   0.35449993 -13.53323642
   0.16334169  -0.01465826   0.98277537   0.35400702   0.00763526   0.69708842   0.35535603 -13.47394360
   0.16334169   0.00000000   0.98267198   0.35440905   0.00000000   0.69698347   0.35568436 -13.48092227
   0.16334169   0.01465826   0.98277537   0.35400702  -0.00763526   0.69708842   0.35535603 -13.55752413
   0.16334169   0.02931651   0.98309535   0.35292731  -0.01531767   0.69741252   0.35449993 -13.49102412
   0.16334169   0.04397477   0.98368409   0.35149677  -0.02301998   0.69800702   0.35344316 -13.48413097
   0.16334169   0.05863302   0.98451932   0.35007912  -0.03074214   0.69884976   0.35255582 -13.53655404
   0.16334169   0.07329128   0.98520157   0.34884354  -0.03872549   0.69954115   0.35206700 -13.47676925
   0.16334169   0.08794953   0.98542076   0.34777527  -0.04654504   0.69976516   0.35193653 -13.46632603
   0.18775875  -0.08452951   0.97924271   0.36421053   0.05269630   0.69364278   0.36957687 -13.54791022
   0.18775875  -0.07044126   0.97910962   0.36542840   0.04396678   0.69350313   0.36965580 -13.42136241
   0.18775875  -0.05635301   0.97855894   0.36669037   0.03491916   0.69294030   0.36998431 -13.41431016
   0.18775875  -0.04226476   0.97778404   0.36799091   0.02615777   0.69215613   0.37061850 -13.53023639
   0.18775875  -0.02817650   0.97722261   0.36923870   0.01741936   0.69158833   0.37139682 -13.46740045
   0.18775875  -0.01408825   0.97692445   0.37016363   0.00868769   0.69128592   0.37203950 -13.35148436
   0.18775875   0.00000000   0.97683041   0.37050607   0.00000000   0.69119032   0.37228848 -13.35514203
   0.18775875   0.01408825   0.97692445   0.37016363  -0.00868769   0.69128592   0.37203950 -13.48100401
   0.18775875   0.02817650   0.97722261   0.36923870  -0.01741936   0.69158833   0.37139682 -13.47376508
   0.18775875   0.04226476   0.97778404   0.36799091  -0.02615777   0.69215613   0.37061850 -13.46691499
   0.18775875   0.05635301   0.97855894   0.36669037  -0.03491916   0.69294030   0.36998431 -13.46688850
   0.18775875   0.07044126   0.97910962   0.36542840  -0.04396678   0.69350313   0.36965580 -13.41374337
   0.18775875   0.08452951   0.97924271   0.36421053  -0.05269630   0.69364278   0.36957687 -13.43927623
   0.21113936  -0.08104373   0.97194182   0.38285999   0.05815899   0.68642855   0.38948759 -13.41650306
   0.21113936  -0.06753644   0.97190085   0.38420168   0.04862090   0.68637868   0.38951591 -13.33809551
   0.21113936  -0.05402916   0.97149858   0.38547737   0.03861659   0.68596018   0.38969161 -13.33936378
   0.21113936  -0.04052187   0.97080279   0.38666194   0.02892989   0.68525257   0.39008966 -13.40617908
   0.21113936  -0.02701458   0.97028065   0.38773447   0.01927695   0.68472295   0.39060885 -13.34295982
   0.21113936  -0.01350729   0.97001002   0.38851103   0.00961903   0.68444769   0.39105147 -13.32211986
   0.21113936   0.00000000   0.96992703   0.38879614   0.00000000   0.68436306   0.39122558 -13.32588915
   0.21113936   0.01350729   0.97001002   0.38851103  -0.00961903   0.68444769   0.39105147 -13.34720976
   0.21113936   0.02701458   0.97028065   0.38773447  -0.01927695   0.68472295   0.39060885 -13.47372316
   0.21113936   0.04052187   0.97080279   0.38666194  -0.02892989   0.68525257   0.39008966 -13.47401787
   0.21113936   0.05402916   0.97149858   0.38547737  -0.03861659   0.68596018   0.38969161 -13.41294485
   0.21113936   0.06753644   0.97190085   0.38420168  -0.04862090   0.68637868   0.38951591 -13.41604285
   0.21113936   0.08104373   0.97194182   0.38285999  -0.05815899   0.68642855   0.38948759 -13.37737799
   0.23350946  -0.07758569   0.96347391   0.40363732   0.06286691   0.67808801   0.41157777 -13.26589105
   0.23350946  -0.06465474   0.96353085   0.40506636   0.05263372   0.67813307   0.41155473 -13.26008728
   0.23350946  -0.05172379   0.96329387   0.40632994   0.04178992   0.67787461   0.41157998 -13.27978250
   0.23350946  -0.03879285   0.96269697   0.40738708   0.03130021   0.67726247   0.41175222 -13.23504110
   0.23350946  -0.02586190   0.96222801   0.40828326   0.02086381   0.67678432   0.41202734 -13.23496386
   0.23350946  -0.01293095   0.96199266   0.40891439   0.01041484   0.67654352   0.41228256 -13.28093595
   0.23350946   0.00000000   0.96192329   0.40914382   0.00000000   0.67647228   0.41238662 -13.23648246
   0.23350946   0.01293095   0.96199266   0.40891439  -0.01041484   0.67654352   0.41228256 -13.30308222
   0.23350946   0.02586190   0.96222801   0.40828326  -0.02086381   0.67678432   0.41202734 -13.41463517
   0.23350946   0.03879285   0.96269697   0.40738708  -0.03130021   0.67726247   0.41175222 -13.41464188
   0.23350946   0.05172379   0.96329387   0.40632994  -0.04178992   0.67787461   0.41157998 -13.40489533
   0.23350946   0.06465474   0.96353085   0.40506636  -0.05263372   0.67813307   0.41155473 -13.34171696
   0.23350946   0.07758569   0.96347391   0.40363732  -0.06286691   0.67808801   0.41157777 -13.29700936
   0.25493212  -0.07422539   0.95378680   0.42643449   0.06675850   0.66858121   0.43575192 -13.22199341
   0.25493212  -0.06185449   0.95394682   0.42790759   0.05595669   0.66872562   0.43567582 -13.22369412
   0.25493212  -0.04948359   0.95389075   0.42912519   0.04440229   0.66864148   0.43555013 -13.19716317
   0.25493212  -0.03711269   0.95341136   0.43003612   0.03324099   0.66814250   0.43550316 -13.18862333
   0.25493212  -0.02474180   0.95300844   0.43074929   0.02216052   0.66772794   0.43554634 -13.19020263
   0.25493212  -0.01237090   0.95281534   0.43123488   0.01106487   0.66752807   0.43562542 -13.19042616
   0.25493212   0.00000000   0.95276188   0.43140938   0.00000000   0.66747230   0.43566395 -13.18213182
   0.25493212   0.01237090   0.95281534   0.43123488  -0.01106487   0.66752807   0.43562542 -13.25524735
   0.25493212   0.02474180   0.95300844   0.43074929  -0.02216052   0.66772794   0.43554634 -13.29993312
   0.25493212   0.03711269   0.95341136   0.43003612  -0.03324099   0.66814250   0.43550316 -13.29483320
   0.25493212   0.04948359   0.95389075   0.42912519  -0.04440229   0.66864148   0.43555013 -13.29489331
   0.25493212   0.06185449   0.95394682   0.42790759  -0.05595669   0.66872562   0.43567582 -13.27987148
   0.25493212   0.07422539   0.95378680   0.42643449  -0.06675850   0.66858121   0.43575192 -13.30094529
   0.27538101  -0.07103004   0.94284123   0.45113465   0.06977602   0.65788368   0.46192016 -13.22445730
   0.27538101  -0.05919170   0.94310956   0.45260430   0.05854733   0.65813178   0.46178806 -13.18210872
   0.27538101  -0.04735336   0.94325061   0.45373643   0.04642355   0.65823659   0.46150758 -13.10774168
   0.27538101  -0.03551502   0.94290803   0.45447675   0.03473134   0.65786886   0.46124355 -13.14239979
   0.27538101  -0.02367668   0.94258387   0.45499544   0.02315382   0.65752978   0.46106277 -13.14250065
   0.27538101  -0.01183834   0.94243948   0.45533207   0.01156267   0.65737666   0.46097417 -13.14416272
   0.27538101   0.00000000   0.94240396   0.45545123   0.00000000   0.65733816   0.46095070 -13.18206283
   0.27538101   0.01183834   0.94243948   0.45533207  -0.01156267   0.65737666   0.46097417 -13.14942721
   0.27538101   0.02367668   0.94258387   0.45499544  -0.02315382   0.65752978   0.46106277 -13.14942075
   0.27538101   0.03551502   0.94290803   0.45447675  -0.03473134   0.65786886   0.46124355 -13.18217588
   0.27538101   0.04735336   0.94325061   0.45373643  -0.04642355   0.65823659   0.46150758 -13.19059439
   0.27538101   0.05919170   0.94310956   0.45260430  -0.05854733   0.65813178   0.46178806 -13.23513208
   0.27538101   0.07103004   0.94284123   0.45113465  -0.06977602   0.65788368   0.46192016 -13.25552527
   0.29495971  -0.06803130   0.93061116   0.47762495   0.07186607   0.64598697   0.49000994 -13.18522861
   0.29495971  -0.05669275   0.93099354   0.47904245   0.06036711   0.64634342   0.48981781 -13.13818585
   0.29495971  -0.04535420   0.93134937   0.48004682   0.04782715   0.64665286   0.48937547 -13.13801911
   0.29495971  -0.03401565   0.93116461   0.48058850   0.03575372   0.64643587   0.48889194 -13.14414384
   0.29495971  -0.02267710   0.93093307   0.48089740   0.02383329   0.64618508   0.48849053 -13.14255954
   0.29495971  -0.01133855   0.93084431   0.48107870   0.01190347   0.64608490   0.48823922 -13.14408293
   0.29495971   0.00000000   0.93082888   0.48114102   0.00000000   0.64606553   0.48815600 -13.10951695
   0.29495971   0.01133855   0.93084431   0.48107870  -0.01190347   0.64608490   0.48823922 -13.14421489
   0.29495971   0.02267710   0.93093307   0.48089740  -0.02383329   0.64618508   0.48849053 -13.14252317
   0.29495971   0.03401565   0.93116461   0.48058850  -0.03575372   0.64643587   0.48889194 -13.14257880
   0.29495971   0.04535420   0.93134937   0.48004682  -0.04782715   0.64665286   0.48937547 -13.14256646
   0.29495971   0.05669275   0.93099354   0.47904245  -0.06036711   0.64634342   0.48981781 -13.14214011
   0.29495971   0.06803130   0.93061116   0.47762495  -0.07186607   0.64598697   0.49000994 -13.17292746
   0.31377279  -0.06524851   0.91703871   0.50577935   0.07298017   0.63285418   0.51995264 -13.09658409
   0.31377279  -0.05437376   0.91754080   0.50709772   0.06137996   0.63332336   0.51969553 -13.09402637
   0.31377279  -0.04349901   0.91812944   0.50793190   0.04858801   0.63385298   0.51908152 -13.10703031
   0.31377279  -0.03262426   0.91812458   0.50824547   0.03629142   0.63380691   0.51837203 -13.10859522
   0.31377279  -0.02174950   0.91800064   0.50832728   0.02418882   0.63365810   0.51774923 -13.10981404
   0.31377279  -0.01087475   0.91797507   0.50834510   0.01208254   0.63361754   0.51733712 -13.11595175
   0.31377279   0.00000000   0.91798203   0.50834832   0.00000000   0.63361929   0.51719524 -13.07493438
   0.31377279   0.01087475   0.91797507   0.50834510  -0.01208254   0.63361754   0.51733712 -13.11276554
   0.31377279   0.02174950   0.91800064   0.50832728  -0.02418882   0.63365810   0.51774923 -13.14412707
   0.31377279   0.03262426   0.91812458   0.50824547  -0.03629142   0.63380691   0.51837203 -13.07316508
   0.31377279   0.04349901   0.91812944   0.50793190  -0.04858801   0.63385298   0.51908152 -13.07148241
   0.31377279   0.05437376   0.91754080   0.50709772  -0.06137996   0.63332336   0.51969553 -13.07134520
   0.31377279   0.06524851   0.91703871   0.50577935  -0.07298017   0.63285418   0.51995264 -13.06255140
   0.33176545  -0.06271391   0.90211131   0.53544908   0.07307766   0.61849539   0.55166457 -13.06397596
   0.33176545  -0.05226159   0.90273808   0.53662561   0.06155572   0.61908072   0.55133688 -13.06865444
   0.33176545  -0.04180927   0.90357686   0.53724957   0.04868495   0.61984484   0.55053921 -13.03784911
   0.33176545  -0.03135695   0.90377426   0.53730639   0.03632990   0.61998963   0.54959410 -13.03261118
   0.33176545  -0.02090464   0.90377320   0.53714348   0.02421147   0.61995648   0.54874584 -13.03380319
   0.33176545  -0.01045232   0.90381843   0.53698889   0.01209576   0.61998216   0.54817227 -13.07199324
   0.33176545   0.00000000   0.90385011   0.53693041   0.00000000   0.62000698   0.54797185 -13.06867490
   0.33176545   0.01045232   0.90381843   0.53698889  -0.01209576   0.61998216   0.54817227 -13.06251757
   0.33176545   0.02090464   0.90377320   0.53714348  -0.02421147   0.61995648   0.54874584 -13.09411957
   0.33176545   0.03135695   0.90377426   0.53730639  -0.03632990   0.61998963   0.54959410 -13.03584346
   0.33176545   0.04180927   0.90357686   0.53724957  -0.04868495   0.61984484   0.55053921 -13.04024149
   0.33176545   0.05226159   0.90273808   0.53662561  -0.06155572   0.61908072   0.55133688 -13.06558200
   0.33176545   0.06271391   0.90211131   0.53544908  -0.07307766   0.61849539   0.55166457 -13.02730237
   0.34910072  -0.06041990   0.88584770   0.56649919   0.07211718   0.60295491   0.58508174 -13.03734530
   0.34910072  -0.05034992   0.88660413   0.56749677   0.06086532   0.60365950   0.58467726 -13.01019076
   0.34910072  -0.04027993   0.88771041   0.56787465   0.04809840   0.60467177   0.58368218 -13.00470149
   0.34910072  -0.03020995   0.88813241   0.56764849   0.03585640   0.60502668   0.58248924 -13.00346194
   0.34910072  -0.02013997   0.88826945   0.56722427   0.02389361   0.60512245   0.58140883 -13.00355077
   0.34910072  -0.01006998   0.88839304   0.56688850   0.01193962   0.60522070   0.58067113 -13.06357524
   0.34910072   0.00000000   0.88845173   0.56676565  -0.00000000   0.60527044   0.58041151 -13.06503864
   0.34910072   0.01006998   0.88839304   0.56688850  -0.01193962   0.60522070   0.58067113 -13.02935038
   0.34910072   0.02013997   0.88826945   0.56722427  -0.02389361   0.60512245   0.58140883 -13.05354917
   0.34910072   0.03020995   0.88813241   0.56764849  -0.03585640   0.60502668   0.58248924 -13.02832151
   0.34910072   0.04027993   0.88771041   0.56787465  -0.04809840   0.60467177   0.58368218 -13.00871410
   0.34910072   0.05034992   0.88660413   0.56749677  -0.06086532   0.60365950   0.58467726 -13.03379294
   0.34910072   0.06041990   0.88584770   0.56649919  -0.07211718   0.60295491   0.58508174 -13.02308544
   0.36585234  -0.05836701   0.86823377   0.59881525   0.07005918   0.58624888   0.62017394 -12.99988192
   0.36585234  -0.04863918   0.86912485   0.59960389   0.05928068   0.58707550   0.61968604 -12.97420115
   0.36585234  -0.03891134   0.87051568   0.59970545   0.04680967   0.58834838   0.61847853 -12.97424377
   0.36585234  -0.02918351   0.87118426   0.59917382   0.03485903   0.58893158   0.61702360 -12.97208346
   0.36585234  -0.01945567   0.87147463   0.59847387   0.02322826   0.58916905   0.61570232 -12.97916779
   0.36585234  -0.00972784   0.87168410   0.59794921   0.01161094   0.58934597   0.61479632 -13.00224659
   0.36585234   0.00000000   0.87177203   0.59775962  -0.00000000   0.58942236   0.61447630 -12.99541152
   0.36585234   0.00972784   0.87168410   0.59794921  -0.01161094   0.58934597   0.61479632 -12.97231697
   0.36585234   0.01945567   0.87147463   0.59847387  -0.02322826   0.58916905   0.61570232 -12.98185941
   0.36585234   0.02918351   0.87118426   0.59917382  -0.03485903   0.58893158   0.61702360 -12.97696723
   0.36585234   0.03891134   0.87051568   0.59970545  -0.04680967   0.58834838   0.61847853 -12.97207921
   0.36585234   0.04863918   0.86912485   0.59960389  -0.05928068   0.58707550   0.61968604 -12.97685815
   0.36585234   0.05836701   0.86823377   0.59881525  -0.07005918   0.58624888   0.62017394 -12.97302650
   0.38208131  -0.05655357   0.84927009   0.63227613   0.06687569   0.56841037   0.65691311 -12.96449598
   0.38208131  -0.04712797   0.85029964   0.63283482   0.05678026   0.56936024   0.65633514 -12.94520437
   0.38208131  -0.03770238   0.85199008   0.63263713   0.04480380   0.57090336   0.65489950 -12.92652601
   0.38208131  -0.02827678   0.85292614   0.63178255   0.03332785   0.57173107   0.65316699 -12.94787364
   0.38208131  -0.01885119   0.85338463   0.63079559   0.02220935   0.57212209   0.65159465 -12.95020122
   0.38208131  -0.00942559   0.85368727   0.63007596   0.01110689   0.57238327   0.65051512 -12.94333978
   0.38208131   0.00000000   0.85380659   0.62981775  -0.00000000   0.57248787   0.65013311 -12.95784611
   0.38208131   0.00942559   0.85368727   0.63007596  -0.01110689   0.57238327   0.65051512 -12.94329816
   0.38208131   0.01885119   0.85338463   0.63079559  -0.02220935   0.57212209   0.65159465 -12.92718103
   0.38208131   0.02827678   0.85292614   0.63178255  -0.03332785   0.57173107   0.65316699 -12.92229711
   0.38208131   0.03770238   0.85199008   0.63263713  -0.04480380   0.57090336   0.65489950 -12.92312491
   0.38208131   0.04712797   0.85029964   0.63283482  -0.05678026   0.56936024   0.65633514 -12.93131123
   0.38208131   0.05655357   0.84927009   0.63227613  -0.06687569   0.56841037   0.65691311 -12.90893168
   0.39785063  -0.05497489   0.82898657   0.66674682   0.06254382   0.54950274   0.69526175 -12.91303617
   0.39785063  -0.04581240   0.83015734   0.66706415   0.05334706   0.55057561   0.69458686 -12.89376246
   0.39785063  -0.03664992   0.83216031   0.66655217   0.04206914   0.55239553   0.69290666 -12.87847232
   0.39785063  -0.02748744   0.83338313   0.66536286   0.03125502   0.55348140   0.69087978 -12.89983279
   0.39785063  -0.01832496   0.83402367   0.66408142   0.02083200   0.55403639   0.68904503 -12.89913885
   0.39785063  -0.00916248   0.83442623   0.66316284   0.01042513   0.55438662   0.68778593 -12.89450607
   0.39785063   0.00000000   0.83457888   0.66283479  -0.00000000   0.55452070   0.68734002 -12.91447071
   0.39785063   0.00916248   0.83442623   0.66316284  -0.01042513   0.55438662   0.68778593 -12.89911514
   0.39785063   0.01832496   0.83402367   0.66408142  -0.02083200   0.55403639   0.68904503 -12.89911088
   0.39785063   0.02748744   0.83338313   0.66536286  -0.03125502   0.55348140   0.69087978 -12.89909276
   0.39785063   0.03664992   0.83216031   0.66655217  -0.04206914   0.55239553   0.69290666 -12.87912381
   0.39785063   0.04581240   0.83015734   0.66706415  -0.05334706   0.55057561   0.69458686 -12.87839139
   0.39785063   0.05497489   0.82898657   0.66674682  -0.06254382   0.54950274   0.69526175 -12.87684062
   0.41322424  -0.05362478   0.80743503   0.70208556   0.05704163   0.52961191   0.73517908 -12.84866614
   0.41322424  -0.04468731   0.80874914   0.70215999   0.04896690   0.53080653   0.73440027 -12.83279064
   0.41322424  -0.03574985   0.81107587   0.70132723   0.03859658   0.53290709   0.73245844 -12.83406681
   0.41322424  -0.02681239   0.81260294   0.69979776   0.02863455   0.53426200   0.73011946 -12.85126993
   0.41322424  -0.01787493   0.81343825   0.69821865   0.01909249   0.53498954   0.72801011 -12.85194082
   0.41322424  -0.00893746   0.81394678   0.69709956   0.00956391   0.53543262   0.72656481 -12.83302764
   0.41322424   0.00000000   0.81413442   0.69670121  -0.00000000   0.53559711   0.72605292 -12.83594417
   0.41322424   0.00893746   0.81394678   0.69709956  -0.00956391   0.53543262   0.72656481 -12.85496850
   0.41322424   0.01787493   0.81343825   0.69821865  -0.01909249   0.53498954   0.72801011 -12.86995517
   0.41322424   0.02681239   0.81260294   0.69979776  -0.02863455   0.53426200   0.73011946 -12.85065485
   0.41322424   0.03574985   0.81107587   0.70132723  -0.03859658   0.53290709   0.73245844 -12.83470658
   0.41322424   0.04468731   0.80874914   0.70215999  -0.04896690   0.53080653   0.73440027 -12.83404163
   0.41322424   0.05362478   0.80743503   0.70208556  -0.05704163   0.52961191   0.73517908 -12.84985494
   0.42826616  -0.05249666   0.78468334   0.73815182   0.05035840   0.50884009   0.77662988 -12.79267239
   0.42826616  -0.04374721   0.78614162   0.73799270   0.04363037   0.51015351   0.77574033 -12.77677039
   0.42826616  -0.03499777   0.78880046   0.73684207   0.03437956   0.51253475   0.77351984 -12.76327733
   0.42826616  -0.02624833   0.79064662   0.73497395   0.02546217   0.51416597   0.77085059 -12.79399264
   0.42826616  -0.01749889   0.79168786   0.73309871   0.01698820   0.51507247   0.76845393 -12.79324425
   0.42826616  -0.00874944   0.79230753   0.73178023   0.00852195   0.51561105   0.76681544 -12.76347660
   0.42826616   0.00000000   0.79253155   0.73131199  -0.00000000   0.51580650   0.76623531 -12.76517859
   0.42826616   0.00874944   0.79230753   0.73178023  -0.00852195   0.51561105   0.76681544 -12.79367615
   0.42826616   0.01749889   0.79168786   0.73309871  -0.01698820   0.51507247   0.76845393 -12.82549886
   0.42826616   0.02624833   0.79064662   0.73497395  -0.02546217   0.51416597   0.77085059 -12.79270799
   0.42826616   0.03499777   0.78880046   0.73684207  -0.03437956   0.51253475   0.77351984 -12.77341492
   0.42826616   0.04374721   0.78614162   0.73799270  -0.04363037   0.51015351   0.77574033 -12.79028339
   0.42826616   0.05249666   0.78468334   0.73815182  -0.05035840   0.50884009   0.77662988 -12.79268435
   0.44303730  -0.05158421   0.76080989   0.77481311   0.04248757   0.48729976   0.81959121 -12.72296130
   0.44303730  -0.04298684   0.76241171   0.77444083   0.03733172   0.48872730   0.81858435 -12.72551332
   0.44303730  -0.03438947   0.76540761   0.77298493   0.02941397   0.49138502   0.81606844 -12.72372630
   0.44303730  -0.02579211   0.76758450   0.77078705   0.02173510   0.49329564   0.81305072 -12.73901900
   0.44303730  -0.01719474   0.76884084   0.76862234   0.01451731   0.49438496   0.81035389 -12.74162401
   0.44303730  -0.00859737   0.76957579   0.76710850   0.00729836   0.49502037   0.80851507 -12.72633611
   0.44303730   0.00000000   0.76983721   0.76657171  -0.00000000   0.49524690   0.80786440 -12.72375054
   0.44303730   0.00859737   0.76957579   0.76710850  -0.00729836   0.49502037   0.80851507 -12.72553723
   0.44303730   0.01719474   0.76884084   0.76862234  -0.01451731   0.49438496   0.81035389 -12.74238565
   0.44303730   0.02579211   0.76758450   0.77078705  -0.02173510   0.49329564   0.81305072 -12.74059812
   0.44303730   0.03438947   0.76540761   0.77298493  -0.02941397   0.49138502   0.81606844 -12.72551369