 VARIABLES = "X" "Y" "RHO" "U" "V" "pres"
 Zone I=          41 , J=          99 , F=POINT
  0.02884615 -0.36214726  1.00335028  0.05332387  0.00549864  0.71764140
  0.02884615 -0.34403990  1.00313409  0.05396350  0.00382509  0.71742456
  0.02884615 -0.32593254  1.00277939  0.05548617  0.00281639  0.71706900
  0.02884615 -0.30782517  1.00260711  0.05780664  0.00215641  0.71689661
  0.02884615 -0.28971781  1.00264429  0.06045365  0.00160129  0.71693398
  0.02884615 -0.27161045  1.00292915  0.06282170  0.00095447  0.71721893
  0.02884615 -0.25350308  1.00352030  0.06426789  0.00009644  0.71781020
  0.02884615 -0.23539572  1.00437754  0.06426656 -0.00092244  0.71866813
  0.02884615 -0.21728836  1.00526718  0.06264136 -0.00186240  0.71955934
  0.02884615 -0.19918100  1.00575815  0.05976587 -0.00236665  0.72005191
  0.02884615 -0.18107363  1.00540486  0.05657797 -0.00212712  0.71969870
  0.02884615 -0.16296627  1.00407411  0.05430672 -0.00108621  0.71836605
  0.02884615 -0.14485891  1.00216028  0.05396585  0.00044736  0.71645020
  0.02884615 -0.12675154  1.00042951  0.05584715  0.00187928  0.71471921
  0.02884615 -0.10864418  0.99953994  0.05931575  0.00259937  0.71383081
  0.02884615 -0.09053682  0.99963053  0.06304479  0.00229312  0.71392228
  0.02884615 -0.07242945  1.00031471  0.06560360  0.00113429  0.71460676
  0.02884615 -0.05432209  1.00102907  0.06616799 -0.00024829  0.71532126
  0.02884615 -0.03621473  1.00142218  0.06500041 -0.00108068  0.71571370
  0.02884615 -0.01810736  1.00150391  0.06333060 -0.00092293  0.71579361
  0.02884615  0.00000000  1.00149020  0.06256858 -0.00000003  0.71577879
  0.02884615  0.01810736  1.00150389  0.06333049  0.00092286  0.71579358
  0.02884615  0.03621473  1.00142215  0.06500018  0.00108060  0.71571367
  0.02884615  0.05432209  1.00102907  0.06616764  0.00024822  0.71532126
  0.02884615  0.07242945  1.00031475  0.06560313 -0.00113433  0.71460680
  0.02884615  0.09053682  0.99963060  0.06304425 -0.00229314  0.71392236
  0.02884615  0.10864418  0.99954001  0.05931518 -0.00259938  0.71383088
  0.02884615  0.12675154  1.00042955  0.05584654 -0.00187931  0.71471925
  0.02884615  0.14485891  1.00216028  0.05396514 -0.00044744  0.71645019
  0.02884615  0.16296627  1.00407406  0.05430581  0.00108607  0.71836600
  0.02884615  0.18107363  1.00540479  0.05657679  0.00212696  0.71969863
  0.02884615  0.19918100  1.00575811  0.05976440  0.00236650  0.72005187
  0.02884615  0.21728836  1.00526719  0.06263961  0.00186228  0.71955935
  0.02884615  0.23539572  1.00437760  0.06426458  0.00092237  0.71866819
  0.02884615  0.25350308  1.00352041  0.06426572 -0.00009647  0.71781031
  0.02884615  0.27161045  1.00292928  0.06281935 -0.00095447  0.71721906
  0.02884615  0.28971781  1.00264443  0.06045113 -0.00160127  0.71693412
  0.02884615  0.30782517  1.00260725  0.05780397 -0.00215636  0.71689675
  0.02884615  0.32593254  1.00277952  0.05548340 -0.00281629  0.71706913
  0.02884615  0.34403990  1.00313420  0.05396068 -0.00382491  0.71742467
  0.02884615  0.36214726  1.00335038  0.05332103 -0.00549835  0.71764149
  0.03846154 -0.36099471  1.00239740  0.05435339  0.00742977  0.71668739
  0.03846154 -0.34294498  1.00224606  0.05489571  0.00608101  0.71653593
  0.03846154 -0.32489524  1.00199736  0.05621419  0.00494149  0.71628728
  0.03846154 -0.30684550  1.00194109  0.05833569  0.00396022  0.71623154
  0.03846154 -0.28879577  1.00220248  0.06082778  0.00296697  0.71649353
  0.03846154 -0.27074603  1.00288323  0.06306118  0.00174001  0.71717471
  0.03846154 -0.25269630  1.00405170  0.06437008  0.00013817  0.71834398
  0.03846154 -0.23464656  1.00558228  0.06423461 -0.00171416  0.71987659
  0.03846154 -0.21659683  1.00702453  0.06252165 -0.00337430  0.72132188
  0.03846154 -0.19854709  1.00763946  0.05966577 -0.00421493  0.72193871
  0.03846154 -0.18049736  1.00673642  0.05663636 -0.00372577  0.72103411
  0.03846154 -0.16244762  1.00420527  0.05462386 -0.00185395  0.71849908
  0.03846154 -0.14439788  1.00082162  0.05453928  0.00082656  0.71511327
  0.03846154 -0.12634815  0.99793246  0.05656132  0.00328035  0.71222530
  0.03846154 -0.10829841  0.99663109  0.05999922  0.00447680  0.71092597
  0.03846154 -0.09024868  0.99706899  0.06356297  0.00390751  0.71136455
  0.03846154 -0.07219894  0.99846034  0.06593596  0.00189882  0.71275593
  0.03846154 -0.05414921  0.99973037  0.06642016 -0.00045912  0.71402583
  0.03846154 -0.03609947  1.00027141  0.06532382 -0.00185627  0.71456512
  0.03846154 -0.01804974  1.00022314  0.06379612 -0.00157119  0.71451355
  0.03846154  0.00000000  1.00011353  0.06310494 -0.00000003  0.71440217
  0.03846154  0.01804974  1.00022309  0.06379602  0.00157112  0.71451350
  0.03846154  0.03609947  1.00027135  0.06532359  0.00185619  0.71456506
  0.03846154  0.05414921  0.99973035  0.06641981  0.00045904  0.71402581
  0.03846154  0.07219894  0.99846039  0.06593549 -0.00189885  0.71275598
  0.03846154  0.09024868  0.99706910  0.06356242 -0.00390749  0.71136465
  0.03846154  0.10829841  0.99663120  0.05999865 -0.00447675  0.71092608
  0.03846154  0.12634815  0.99793251  0.05656070 -0.00328034  0.71222535
  0.03846154  0.14439788  1.00082159  0.05453856 -0.00082663  0.71511323
  0.03846154  0.16244762  1.00420514  0.05462296  0.00185377  0.71849896
  0.03846154  0.18049736  1.00673625  0.05663520  0.00372555  0.72103394
  0.03846154  0.19854709  1.00763931  0.05966433  0.00421473  0.72193856
  0.03846154  0.21659683  1.00702445  0.06251992  0.00337416  0.72132180
  0.03846154  0.23464656  1.00558229  0.06423265  0.00171411  0.71987659
  0.03846154  0.25269630  1.00405178  0.06436791 -0.00013814  0.71834406
  0.03846154  0.27074603  1.00288335  0.06305882 -0.00173993  0.71717483
  0.03846154  0.28879577  1.00220261  0.06082525 -0.00296684  0.71649366
  0.03846154  0.30684550  1.00194123  0.05833300 -0.00396004  0.71623168
  0.03846154  0.32489524  1.00199748  0.05621138 -0.00494125  0.71628741
  0.03846154  0.34294498  1.00224617  0.05489282 -0.00608070  0.71653604
  0.03846154  0.36099471  1.00239750  0.05435048 -0.00742938  0.71668749
  0.04807692 -0.35952008  1.00171961  0.05497390  0.00934060  0.71600955
  0.04807692 -0.34154407  1.00155807  0.05555421  0.00814158  0.71584809
  0.04807692 -0.32356807  1.00131818  0.05687133  0.00702323  0.71560871
  0.04807692 -0.30559207  1.00135836  0.05890673  0.00582990  0.71564981
  0.04807692 -0.28761606  1.00185276  0.06127836  0.00441649  0.71614503
  0.04807692 -0.26964006  1.00293658  0.06339322  0.00258265  0.71722960
  0.04807692 -0.25166406  1.00466581  0.06459707  0.00021553  0.71896060
  0.04807692 -0.23368805  1.00680709  0.06438668 -0.00245651  0.72110583
  0.04807692 -0.21571205  1.00869090  0.06266151 -0.00478543  0.72299461
  0.04807692 -0.19773604  1.00931082  0.05988576 -0.00589893  0.72361639
  0.04807692 -0.17976004  1.00780338  0.05702249 -0.00512709  0.72210496
  0.04807692 -0.16178404  1.00413300  0.05520375 -0.00245714  0.71842854
  0.04807692 -0.14380803  0.99943677  0.05525112  0.00126848  0.71373102
  0.04807692 -0.12583203  0.99555768  0.05727126  0.00461069  0.70985590
  0.04807692 -0.10785602  0.99393995  0.06056532  0.00618027  0.70824145
  0.04807692 -0.08988002  0.99472508  0.06391355  0.00532802  0.70902625
  0.04807692 -0.07190402  0.99676422  0.06612095  0.00254583  0.71106395
  0.04807692 -0.05392801  0.99852052  0.06659705 -0.00065872  0.71281877
  0.04807692 -0.03595201  0.99916128  0.06566128 -0.00252563  0.71345627
  0.04807692 -0.01797600  0.99896240  0.06434625 -0.00212095  0.71325291
  0.04807692  0.00000000  0.99875272  0.06375235  0.00000001  0.71304107
  0.04807692  0.01797600  0.99896233  0.06434615  0.00212096  0.71325284
  0.04807692  0.03595201  0.99916119  0.06566106  0.00252562  0.71345618
  0.04807692  0.05392801  0.99852048  0.06659670  0.00065872  0.71281873
  0.04807692  0.07190402  0.99676427  0.06612048 -0.00254577  0.71106400
  0.04807692  0.08988002  0.99472521  0.06391301 -0.00532787  0.70902638
  0.04807692  0.10785602  0.99394008  0.06056474 -0.00618008  0.70824158
  0.04807692  0.12583203  0.99555775  0.05727063 -0.00461055  0.70985597
  0.04807692  0.14380803  0.99943672  0.05525039 -0.00126845  0.71373096
  0.04807692  0.16178404  1.00413282  0.05520285  0.00245704  0.71842836
  0.04807692  0.17976004  1.00780312  0.05702134  0.00512691  0.72210470
  0.04807692  0.19773604  1.00931057  0.05988433  0.00589878  0.72361614
  0.04807692  0.21571205  1.00869074  0.06265980  0.00478538  0.72299444
  0.04807692  0.23368805  1.00680703  0.06438472  0.00245658  0.72110577
  0.04807692  0.25166406  1.00466585  0.06459490 -0.00021534  0.71896064
  0.04807692  0.26964006  1.00293668  0.06339085 -0.00258237  0.71722970
  0.04807692  0.28761606  1.00185289  0.06127582 -0.00441615  0.71614516
  0.04807692  0.30559207  1.00135850  0.05890402 -0.00582952  0.71564994
  0.04807692  0.32356807  1.00131830  0.05686849 -0.00702281  0.71560883
  0.04807692  0.34154407  1.00155817  0.05555128 -0.00814112  0.71584819
  0.04807692  0.35952008  1.00171971  0.05497096 -0.00934010  0.71600964
  0.05769231 -0.35772875  1.00097465  0.05560380  0.01125963  0.71526546
  0.05769231 -0.33984231  1.00081102  0.05623185  0.01008654  0.71510195
  0.05769231 -0.32195587  1.00060406  0.05757090  0.00897212  0.71489555
  0.05769231 -0.30406944  1.00077251  0.05956889  0.00761467  0.71506488
  0.05769231 -0.28618300  1.00153273  0.06185349  0.00581522  0.71582585
  0.05769231 -0.26829656  1.00305287  0.06385751  0.00337924  0.71734702
  0.05769231 -0.25041012  1.00536305  0.06495237  0.00025336  0.71966030
  0.05769231 -0.23252369  1.00809877  0.06466761 -0.00319504  0.72240251
  0.05769231 -0.21463725  1.01036020  0.06294323 -0.00610298  0.72467116
  0.05769231 -0.19675081  1.01089629  0.06027048 -0.00737835  0.72520881
  0.05769231 -0.17886437  1.00872362  0.05759678 -0.00624044  0.72302920
  0.05769231 -0.16097794  1.00392523  0.05598497 -0.00276282  0.71822270
  0.05769231 -0.14309150  0.99799302  0.05615738  0.00192810  0.71229105
  0.05769231 -0.12520506  0.99320711  0.05814375  0.00601998  0.70751300
  0.05769231 -0.10731862  0.99130179  0.06124365  0.00782990  0.70561255
  0.05769231 -0.08943219  0.99239922  0.06432819  0.00663292  0.70670802
  0.05769231 -0.07154575  0.99502868  0.06634927  0.00311372  0.70933344
  0.05769231 -0.05365931  0.99723876  0.06683505 -0.00083773  0.71153985
  0.05769231 -0.03577287  0.99798763  0.06610404 -0.00309452  0.71228390
  0.05769231 -0.01788644  0.99766698  0.06504528 -0.00257961  0.71195819
  0.05769231  0.00000000  0.99737232  0.06456652  0.00000011  0.71166135
  0.05769231  0.01788644  0.99766689  0.06504517  0.00257981  0.71195809
  0.05769231  0.03577287  0.99798751  0.06610382  0.00309470  0.71228378
  0.05769231  0.05365931  0.99723870  0.06683469  0.00083793  0.71153979
  0.05769231  0.07154575  0.99502874  0.06634880 -0.00311344  0.70933350
  0.05769231  0.08943219  0.99239937  0.06432765 -0.00663255  0.70670817
  0.05769231  0.10731862  0.99130196  0.06124306 -0.00782947  0.70561272
  0.05769231  0.12520506  0.99320720  0.05814312 -0.00601960  0.70751308
  0.05769231  0.14309150  0.99799295  0.05615665 -0.00192786  0.71229097
  0.05769231  0.16097794  1.00392499  0.05598407  0.00276290  0.71822246
  0.05769231  0.17886437  1.00872327  0.05759563  0.00624043  0.72302885
  0.05769231  0.19675081  1.01089594  0.06026906  0.00737836  0.72520845
  0.05769231  0.21463725  1.01035994  0.06294152  0.00610311  0.72467090
  0.05769231  0.23252369  1.00809865  0.06466565  0.00319533  0.72240238
  0.05769231  0.25041012  1.00536305  0.06495019 -0.00025292  0.71966030
  0.05769231  0.26829656  1.00305296  0.06385515 -0.00337868  0.71734711
  0.05769231  0.28618300  1.00153285  0.06185094 -0.00581460  0.71582597
  0.05769231  0.30406944  1.00077264  0.05956618 -0.00761403  0.71506501
  0.05769231  0.32195587  1.00060418  0.05756805 -0.00897148  0.71489567
  0.05769231  0.33984231  1.00081112  0.05622891 -0.01008592  0.71510205
  0.05769231  0.35772875  1.00097474  0.05560084 -0.01125903  0.71526556
  0.06730769 -0.35562726  1.00022326  0.05622535  0.01317625  0.71451578
  0.06730769 -0.33784590  1.00006163  0.05690559  0.01195951  0.71435420
  0.06730769 -0.32006453  0.99989980  0.05827924  0.01078978  0.71419269
  0.06730769 -0.30228317  1.00021912  0.06027497  0.00925385  0.71451245
  0.06730769 -0.28450181  1.00127732  0.06250711  0.00707531  0.71557098
  0.06730769 -0.26672044  1.00326518  0.06441937  0.00404519  0.71756016
  0.06730769 -0.24893908  1.00616485  0.06541442  0.00018066  0.72046467
  0.06730769 -0.23115772  1.00945421  0.06506927 -0.00398710  0.72376353
  0.06730769 -0.21337636  1.01199655  0.06337427 -0.00737272  0.72631534
  0.06730769 -0.19559499  1.01233188  0.06084450 -0.00869011  0.72665129
  0.06730769 -0.17781363  1.00942465  0.05839694 -0.00709659  0.72373375
  0.06730769 -0.16003227  1.00352872  0.05700720 -0.00279642  0.71782812
  0.06730769 -0.14225090  0.99647913  0.05728569  0.00278773  0.71078207
  0.06730769 -0.12446954  0.99091713  0.05918498  0.00750390  0.70523267
  0.06730769 -0.10668818  0.98878583  0.06201795  0.00944092  0.70310804
  0.06730769 -0.08890681  0.99016659  0.06477461  0.00786010  0.70448480
  0.06730769 -0.07112545  0.99331220  0.06658316  0.00365944  0.70762314
  0.06730769 -0.05334409  0.99592125  0.06710182 -0.00093261  0.71022601
  0.06730769 -0.03556273  0.99677275  0.06663200 -0.00350979  0.71107145
  0.06730769 -0.01778136  0.99635493  0.06588492 -0.00291766  0.71064863
  0.06730769  0.00000000  0.99599002  0.06554394  0.00000026  0.71028186
  0.06730769  0.01778136  0.99635481  0.06588481  0.00291815  0.71064851
  0.06730769  0.03556273  0.99677259  0.06663177  0.00351025  0.71107129
  0.06730769  0.05334409  0.99592117  0.06710146  0.00093309  0.71022593
  0.06730769  0.07112545  0.99331226  0.06658269 -0.00365886  0.70762320
  0.06730769  0.08890681  0.99016677  0.06477406 -0.00785940  0.70448498
  0.06730769  0.10668818  0.98878604  0.06201736 -0.00944015  0.70310824
  0.06730769  0.12446954  0.99091723  0.05918433 -0.00750319  0.70523278
  0.06730769  0.14225090  0.99647904  0.05728495 -0.00278719  0.71078198
  0.06730769  0.16003227  1.00352842  0.05700629  0.00279678  0.71782783
  0.06730769  0.17781363  1.00942422  0.05839579  0.00709683  0.72373332
  0.06730769  0.19559499  1.01233142  0.06084308  0.00869035  0.72665084
  0.06730769  0.21337636  1.01199619  0.06337256  0.00737309  0.72631498
  0.06730769  0.23115772  1.00945401  0.06506731  0.00398765  0.72376332
  0.06730769  0.24893908  1.00616480  0.06541225 -0.00017992  0.72046462
  0.06730769  0.26672044  1.00326524  0.06441700 -0.00404433  0.71756022
  0.06730769  0.28450181  1.00127743  0.06250457 -0.00707439  0.71557109
  0.06730769  0.30228317  1.00021924  0.06027228 -0.00925295  0.71451257
  0.06730769  0.32006453  0.99989992  0.05827641 -0.01078893  0.71419281
  0.06730769  0.33784590  1.00006173  0.05690268 -0.01195874  0.71435430
  0.06730769  0.35562726  1.00022335  0.05622241 -0.01317557  0.71451587
  0.07692308 -0.35322328  0.99946649  0.05686250  0.01508825  0.71376150
  0.07692308 -0.33556211  0.99931124  0.05760204  0.01377807  0.71360619
  0.07692308 -0.31790095  0.99920881  0.05901688  0.01248948  0.71350366
  0.07692308 -0.30023978  0.99970582  0.06102702  0.01072745  0.71400034
  0.07692308 -0.28257862  1.00109745  0.06322948  0.00814685  0.71539162
  0.07692308 -0.26491746  1.00358263  0.06506986  0.00452137  0.71787846
  0.07692308 -0.24725629  1.00707035  0.06598138 -0.00005445  0.72137321
  0.07692308 -0.22959513  1.01085610  0.06559592 -0.00487214  0.72517183
  0.07692308 -0.21193397  1.01356835  0.06395986 -0.00862709  0.72789550
  0.07692308 -0.19427280  1.01358460  0.06160766 -0.00987164  0.72791065
  0.07692308 -0.17661164  1.00988968  0.05941221 -0.00775032  0.72420171
  0.07692308 -0.15895047  1.00295443  0.05824753 -0.00263629  0.71725584
  0.07692308 -0.14128931  0.99493243  0.05860602  0.00374995  0.70924132
  0.07692308 -0.12362815  0.98873762  0.06036935  0.00896108  0.70306439
  0.07692308 -0.10596698  0.98643449  0.06288042  0.01092900  0.70076983
  0.07692308 -0.08830582  0.98804444  0.06526964  0.00896101  0.70237366
  0.07692308 -0.07064466  0.99160269  0.06685826  0.00417697  0.70592116
  0.07692308 -0.05298349  0.99454265  0.06743514 -0.00091772  0.70885234
  0.07692308 -0.03532233  0.99550296  0.06726815 -0.00373667  0.70980566
  0.07692308 -0.01766116  0.99503586  0.06686847 -0.00311218  0.70933401
  0.07692308  0.00000000  0.99462696  0.06667898  0.00000042  0.70892372
  0.07692308  0.01766116  0.99503572  0.06686835  0.00311299  0.70933387
  0.07692308  0.03532233  0.99550278  0.06726792  0.00373745  0.70980548
  0.07692308  0.05298349  0.99454256  0.06743477  0.00091852  0.70885224
  0.07692308  0.07064466  0.99160275  0.06685779 -0.00417606  0.70592122
  0.07692308  0.08830582  0.98804464  0.06526910 -0.00895996  0.70237387
  0.07692308  0.10596698  0.98643473  0.06287983 -0.01092788  0.70077006
  0.07692308  0.12362815  0.98873774  0.06036869 -0.00896002  0.70306452
  0.07692308  0.14128931  0.99493234  0.05860526 -0.00374908  0.70924122
  0.07692308  0.15895047  1.00295409  0.05824660  0.00263693  0.71725551
  0.07692308  0.17661164  1.00988917  0.05941105  0.00775081  0.72420120
  0.07692308  0.19427280  1.01358405  0.06160624  0.00987212  0.72791010
  0.07692308  0.21193397  1.01356789  0.06395817  0.00862769  0.72789504
  0.07692308  0.22959513  1.01085582  0.06559396  0.00487294  0.72517155
  0.07692308  0.24725629  1.00707025  0.06597921  0.00005544  0.72137310
  0.07692308  0.26491746  1.00358266  0.06506751 -0.00452024  0.71787849
  0.07692308  0.28257862  1.00109755  0.06322697 -0.00814567  0.71539173
  0.07692308  0.30023978  0.99970594  0.06102437 -0.01072632  0.71400046
  0.07692308  0.31790095  0.99920893  0.05901412 -0.01248844  0.71350378
  0.07692308  0.33556211  0.99931134  0.05759920 -0.01377718  0.71360630
  0.07692308  0.35322328  0.99946658  0.05685961 -0.01508748  0.71376159
  0.08653846 -0.35052557  0.99870010  0.05754089  0.01699627  0.71299846
  0.08653846 -0.33299929  0.99855866  0.05834800  0.01554878  0.71285682
  0.08653846 -0.31547301  0.99853596  0.05980627  0.01408064  0.71283344
  0.08653846 -0.29794673  0.99924292  0.06183583  0.01203324  0.71353908
  0.08653846 -0.28042046  1.00100651  0.06401997  0.00900845  0.71530152
  0.08653846 -0.26289418  1.00401614  0.06580354  0.00477492  0.71831331
  0.08653846 -0.24536790  1.00807977  0.06664932 -0.00048205  0.72238660
  0.08653846 -0.22784162  1.01228899  0.06624685 -0.00586817  0.72661225
  0.08653846 -0.21031534  1.01504894  0.06470004 -0.00987351  0.72938499
  0.08653846 -0.19278906  1.01462922  0.06255735 -0.01093071  0.72896158
  0.08653846 -0.17526279  1.01010703  0.06063596 -0.00822419  0.72442157
  0.08653846 -0.15773651  1.00220826  0.05969655 -0.00233058  0.71651201
  0.08653846 -0.14021023  0.99337174  0.06010946  0.00473968  0.70768757
  0.08653846 -0.12268395  0.98669259  0.06169315  0.01029937  0.70103168
  0.08653846 -0.10515767  0.98426939  0.06383742  0.01220264  0.69861894
  0.08653846 -0.08763139  0.98604419  0.06583139  0.00986345  0.70038562
  0.08653846 -0.07010511  0.98989709  0.06719934  0.00462354  0.70422426
  0.08653846 -0.05257884  0.99309095  0.06785596 -0.00080997  0.70740666
  0.08653846 -0.03505256  0.99416976  0.06802017 -0.00377806  0.70847761
  0.08653846 -0.01752628  0.99371200  0.06798895 -0.00316236  0.70801579
  0.08653846  0.00000000  0.99329107  0.06795838  0.00000057  0.70759389
  0.08653846  0.01752628  0.99371185  0.06798882  0.00316348  0.70801564
  0.08653846  0.03505256  0.99416955  0.06801992  0.00377915  0.70847740
  0.08653846  0.05257884  0.99309083  0.06785559  0.00081108  0.70740654
  0.08653846  0.07010511  0.98989716  0.06719888 -0.00462231  0.70422432
  0.08653846  0.08763139  0.98604441  0.06583085 -0.00986208  0.70038584
  0.08653846  0.10515767  0.98426965  0.06383682 -0.01220120  0.69861920
  0.08653846  0.12268395  0.98669274  0.06169248 -0.01029800  0.70103182
  0.08653846  0.14021023  0.99337165  0.06010867 -0.00473852  0.70768747
  0.08653846  0.15773651  1.00220789  0.05969561  0.00233148  0.71651164
  0.08653846  0.17526279  1.01010645  0.06063480  0.00822491  0.72442098
  0.08653846  0.19278906  1.01462857  0.06255593  0.01093138  0.72896093
  0.08653846  0.21031534  1.01504838  0.06469835  0.00987427  0.72938442
  0.08653846  0.22784162  1.01228861  0.06624492  0.00586913  0.72661188
  0.08653846  0.24536790  1.00807961  0.06664717  0.00048322  0.72238644
  0.08653846  0.26289418  1.00401613  0.06580122 -0.00477362  0.71831331
  0.08653846  0.28042046  1.00100660  0.06401751 -0.00900711  0.71530161
  0.08653846  0.29794673  0.99924304  0.06183324 -0.01203195  0.71353920
  0.08653846  0.31547301  0.99853608  0.05980358 -0.01407948  0.71283356
  0.08653846  0.33299929  0.99855876  0.05834524 -0.01554779  0.71285692
  0.08653846  0.35052557  0.99870019  0.05753808 -0.01699544  0.71299856
  0.09615385 -0.34754399  0.99792983  0.05827478  0.01890029  0.71223245
  0.09615385 -0.33016679  0.99781129  0.05915915  0.01727785  0.71211353
  0.09615385 -0.31278959  0.99789224  0.06066335  0.01557448  0.71219311
  0.09615385 -0.29541239  0.99884528  0.06271279  0.01318042  0.71314367
  0.09615385 -0.27803519  1.00102084  0.06488285  0.00966044  0.71531725
  0.09615385 -0.26065799  1.00457650  0.06662004  0.00479946  0.71887590
  0.09615385 -0.24328079  1.00918903  0.06741799 -0.00110518  0.72350114
  0.09615385 -0.22590359  1.01373012  0.06702483 -0.00696628  0.72806214
  0.09615385 -0.20852639  1.01640454  0.06559971 -0.01109172  0.73074985
  0.09615385 -0.19114919  1.01543648  0.06369759 -0.01184578  0.72977465
  0.09615385 -0.17377199  1.01006480  0.06206835 -0.00850906  0.72438147
  0.09615385 -0.15639479  1.00129789  0.06134941 -0.00189238  0.71560447
  0.09615385 -0.13901760  0.99181763  0.06178790  0.00572132  0.70614123
  0.09615385 -0.12164040  0.98480741  0.06314997  0.01147011  0.69915929
  0.09615385 -0.10426320  0.98231508  0.06489023  0.01321421  0.69667914
  0.09615385 -0.08688600  0.98418441  0.06647119  0.01053226  0.69853859
  0.09615385 -0.06950880  0.98820322  0.06762244  0.00497921  0.70253980
  0.09615385 -0.05213160  0.99156304  0.06837394 -0.00061957  0.70588544
  0.09615385 -0.03475440  0.99276452  0.06888208 -0.00364068  0.70707809
  0.09615385 -0.01737720  0.99237476  0.06922426 -0.00307257  0.70668452
  0.09615385  0.00000000  0.99197465  0.06935327  0.00000068  0.70628371
  0.09615385  0.01737720  0.99237460  0.06922413  0.00307391  0.70668435
  0.09615385  0.03475440  0.99276430  0.06888183  0.00364198  0.70707787
  0.09615385  0.05213160  0.99156291  0.06837358  0.00062090  0.70588531
  0.09615385  0.06950880  0.98820328  0.06762199 -0.00497775  0.70253986
  0.09615385  0.08688600  0.98418464  0.06647066 -0.01053066  0.69853883
  0.09615385  0.10426320  0.98231536  0.06488963 -0.01321254  0.69667942
  0.09615385  0.12164040  0.98480758  0.06314928 -0.01146852  0.69915945
  0.09615385  0.13901760  0.99181754  0.06178710 -0.00571996  0.70614113
  0.09615385  0.15639479  1.00129749  0.06134845  0.00189345  0.71560407
  0.09615385  0.17377199  1.01006415  0.06206719  0.00850990  0.72438083
  0.09615385  0.19114919  1.01543574  0.06369619  0.01184653  0.72977391
  0.09615385  0.20852639  1.01640388  0.06559805  0.01109254  0.73074919
  0.09615385  0.22590359  1.01372965  0.06702292  0.00696730  0.72806167
  0.09615385  0.24328079  1.00918880  0.06741588  0.00110641  0.72350091
  0.09615385  0.26065799  1.00457646  0.06661776 -0.00479809  0.71887586
  0.09615385  0.27803519  1.00102091  0.06488045 -0.00965903  0.71531732
  0.09615385  0.29541239  0.99884540  0.06271028 -0.01317906  0.71314379
  0.09615385  0.31278959  0.99789237  0.06066076 -0.01557326  0.71219323
  0.09615385  0.33016679  0.99781140  0.05915649 -0.01727681  0.71211364
  0.09615385  0.34754399  0.99792992  0.05827206 -0.01889941  0.71223254
  0.10576923 -0.34428941  0.99716147  0.05907629  0.02080071  0.71146922
  0.10576923 -0.32707494  0.99707676  0.06004817  0.01897145  0.71138388
  0.10576923 -0.30986047  0.99728938  0.06160165  0.01698227  0.71159432
  0.10576923 -0.29264600  0.99852853  0.06366995  0.01418226  0.71282972
  0.10576923 -0.27543153  1.00115592  0.06582676  0.01011498  0.71545440
  0.10576923 -0.25821706  1.00527064  0.06752493  0.00460776  0.71957334
  0.10576923 -0.24100259  1.01038752  0.06829222 -0.00190350  0.72470632
  0.10576923 -0.22378811  1.01515053  0.06793548 -0.00813369  0.72949232
  0.10576923 -0.20657364  1.01759949  0.06666428 -0.01223998  0.73195396
  0.10576923 -0.18935917  1.01598141  0.06503054 -0.01257707  0.73032453
  0.10576923 -0.17214470  1.00975944  0.06370554 -0.00857959  0.72407783
  0.10576923 -0.15493023  1.00023861  0.06319621 -0.00131719  0.71454847
  0.10576923 -0.13771576  0.99029310  0.06362932  0.00668277  0.70462495
  0.10576923 -0.12050129  0.98310341  0.06473282  0.01245721  0.69746786
  0.10576923 -0.10328682  0.98058846  0.06604395  0.01395660  0.69496652
  0.10576923 -0.08607235  0.98247768  0.06720733  0.01097414  0.69684451
  0.10576923 -0.06885788  0.98652794  0.06815052  0.00525820  0.70087423
  0.10576923 -0.05164341  0.98995766  0.06900221 -0.00033562  0.70428714
  0.10576923 -0.03442894  0.99127749  0.06984569 -0.00332205  0.70559703
  0.10576923 -0.01721447  0.99100829  0.07054483 -0.00284465  0.70532397
  0.10576923  0.00000000  0.99065974  0.07082513  0.00000073  0.70497481
  0.10576923  0.01721447  0.99100812  0.07054469  0.00284610  0.70532380
  0.10576923  0.03442894  0.99127725  0.06984544  0.00332347  0.70559679
  0.10576923  0.05164341  0.98995752  0.06900185  0.00033707  0.70428700
  0.10576923  0.06885788  0.98652799  0.06815008 -0.00525663  0.70087428
  0.10576923  0.08607235  0.98247792  0.06720682 -0.01097242  0.69684475
  0.10576923  0.10328682  0.98058876  0.06604335 -0.01395481  0.69496682
  0.10576923  0.12050129  0.98310359  0.06473212 -0.01245551  0.69746804
  0.10576923  0.13771576  0.99029301  0.06362850 -0.00668132  0.70462486
  0.10576923  0.15493023  1.00023819  0.06319524  0.00131833  0.71454805
  0.10576923  0.17214470  1.00975874  0.06370438  0.00858046  0.72407713
  0.10576923  0.18935917  1.01598058  0.06502915  0.01257781  0.73032370
  0.10576923  0.20657364  1.01759873  0.06666265  0.01224076  0.73195319
  0.10576923  0.22378811  1.01514996  0.06793361  0.00813465  0.72949175
  0.10576923  0.24100259  1.01038721  0.06829015  0.00190468  0.72470600
  0.10576923  0.25821706  1.00527055  0.06752271 -0.00460642  0.71957325
  0.10576923  0.27543153  1.00115597  0.06582442 -0.01011358  0.71545445
  0.10576923  0.29264600  0.99852864  0.06366753 -0.01418090  0.71282984
  0.10576923  0.30986047  0.99728951  0.06159915 -0.01698103  0.71159445
  0.10576923  0.32707494  0.99707687  0.06004561 -0.01897037  0.71138399
  0.10576923  0.34428941  0.99716157  0.05907367 -0.02079979  0.71146932
  0.11538462 -0.34077370  0.99640400  0.05995213  0.02269673  0.71071758
  0.11538462 -0.32373502  0.99636595  0.06102196  0.02063291  0.71067861
  0.11538462 -0.30669633  0.99674227  0.06262960  0.01831062  0.71105179
  0.11538462 -0.28965765  0.99831041  0.06471671  0.01504814  0.71261484
  0.11538462 -0.27261896  1.00142678  0.06686068  0.01038511  0.71572795
  0.11538462 -0.25558028  1.00610161  0.06852621  0.00422053  0.72040867
  0.11538462 -0.23854159  1.01165858  0.06927960 -0.00284313  0.72598531
  0.11538462 -0.22150291  1.01651650  0.06898629 -0.00932279  0.73086859
  0.11538462 -0.20446422  1.01859795  0.06789951 -0.01326491  0.73296081
  0.11538462 -0.18742554  1.01624362  0.06655716 -0.01307867  0.73059038
  0.11538462 -0.17038685  1.00919357  0.06554144 -0.00840908  0.72351312
  0.11538462 -0.15334817  0.99904912  0.06522468 -0.00060044  0.71336256
  0.11538462 -0.13630948  0.98881917  0.06562045  0.00761524  0.70315934
  0.11538462 -0.11927080  0.98159521  0.06643555  0.01325427  0.69597137
  0.11538462 -0.10223211  0.97909907  0.06730632  0.01443825  0.69348993
  0.11538462 -0.08519343  0.98093412  0.06806149  0.01121256  0.69531292
  0.11538462 -0.06815474  0.98488338  0.06881012  0.00548666  0.69923941
  0.11538462 -0.05111606  0.98828324  0.06975767  0.00005671  0.70262020
  0.11538462 -0.03407737  0.98970577  0.07090714 -0.00282155  0.70403165
  0.11538462 -0.01703869  0.98959698  0.07192585 -0.00248323  0.70391864
  0.11538462  0.00000000  0.98932519  0.07234041  0.00000074  0.70364615
  0.11538462  0.01703869  0.98959681  0.07192572  0.00248468  0.70391847
  0.11538462  0.03407737  0.98970553  0.07090689  0.00282298  0.70403142
  0.11538462  0.05111606  0.98828309  0.06975733 -0.00005524  0.70262006
  0.11538462  0.06815474  0.98488343  0.06880970 -0.00548507  0.69923946
  0.11538462  0.08519343  0.98093436  0.06806099 -0.01121082  0.69531315
  0.11538462  0.10223211  0.97909937  0.06730572 -0.01443645  0.69349024
  0.11538462  0.11927080  0.98159540  0.06643484 -0.01325256  0.69597156
  0.11538462  0.13630948  0.98881909  0.06561962 -0.00761378  0.70315926
  0.11538462  0.15334817  0.99904869  0.06522370  0.00060156  0.71336213
  0.11538462  0.17038685  1.00919283  0.06554029  0.00840991  0.72351238
  0.11538462  0.18742554  1.01624272  0.06655580  0.01307933  0.73058948
  0.11538462  0.20446422  1.01859708  0.06789791  0.01326558  0.73295993
  0.11538462  0.22150291  1.01651583  0.06898447  0.00932362  0.73086791
  0.11538462  0.23854159  1.01165818  0.06927758  0.00284419  0.72598491
  0.11538462  0.25558028  1.00610146  0.06852405 -0.00421928  0.72040852
  0.11538462  0.27261896  1.00142679  0.06685841 -0.01038377  0.71572797
  0.11538462  0.28965765  0.99831051  0.06471436 -0.01504682  0.71261494
  0.11538462  0.30669633  0.99674239  0.06262719 -0.01830938  0.71105192
  0.11538462  0.32373502  0.99636607  0.06101948 -0.02063181  0.71067873